<?xml version="1.0" encoding="UTF-8"?>

<!-- generated on 2024-07-24 22:29:36 by Eclipse SUMO sumo Version 1.18.0
<configuration xmlns:xsi="http://www.w3.org/2001/XMLSchema-instance" xsi:noNamespaceSchemaLocation="http://sumo.dlr.de/xsd/sumoConfiguration.xsd">

    <input>
        <net-file value="c:\DATA\ROB\7SEM\test\skrzyzowanieX_swiatla\01_skrzyzowanieX.net.xml"/>
        <route-files value="c:\DATA\ROB\7SEM\test\skrzyzowanieX_swiatla\01_skrzyzowanieX.rou.xml"/>
    </input>

    <output>
        <tripinfo-output value="c:\DATA\ROB\7SEM\test\skrzyzowanieX_swiatla\wynik\out_tripInfo.xml"/>
    </output>

</configuration>
-->

<tripinfos xmlns:xsi="http://www.w3.org/2001/XMLSchema-instance" xsi:noNamespaceSchemaLocation="http://sumo.dlr.de/xsd/tripinfo_file.xsd">
    <tripinfo id="f_0.0" depart="0.00" departLane="E0_0" departPos="5.10" departSpeed="0.00" departDelay="0.00" arrival="24.00" arrivalLane="E2_0" arrivalPos="102.50" arrivalSpeed="9.91" duration="24.00" routeLength="177.16" waitingTime="0.00" waitingCount="0" stopTime="0.00" timeLoss="5.56" rerouteNo="0" devices="tripinfo_f_0.0 routing_f_0.0" vType="car2" speedFactor="1.06" vaporized=""/>
    <tripinfo id="f_1.0" depart="0.00" departLane="-E2_0" departPos="5.10" departSpeed="0.00" departDelay="0.00" arrival="25.00" arrivalLane="-E0_0" arrivalPos="65.34" arrivalSpeed="9.59" duration="25.00" routeLength="177.16" waitingTime="0.00" waitingCount="0" stopTime="0.00" timeLoss="6.37" rerouteNo="0" devices="tripinfo_f_1.0 routing_f_1.0" vType="car2" speedFactor="0.94" vaporized=""/>
    <tripinfo id="f_5.0" depart="4.00" departLane="E0_0" departPos="5.10" departSpeed="0.00" departDelay="4.00" arrival="26.00" arrivalLane="E3_0" arrivalPos="61.11" arrivalSpeed="10.78" duration="22.00" routeLength="130.38" waitingTime="0.00" waitingCount="0" stopTime="0.00" timeLoss="10.24" rerouteNo="0" devices="tripinfo_f_5.0 routing_f_5.0" vType="car0" speedFactor="0.89" vaporized=""/>
    <tripinfo id="f_8.0" depart="8.00" departLane="E0_0" departPos="5.10" departSpeed="0.00" departDelay="8.00" arrival="31.00" arrivalLane="E1_0" arrivalPos="57.23" arrivalSpeed="9.82" duration="23.00" routeLength="131.68" waitingTime="0.00" waitingCount="0" stopTime="0.00" timeLoss="8.79" rerouteNo="0" devices="tripinfo_f_8.0 routing_f_8.0" vType="car2" speedFactor="1.09" vaporized=""/>
    <tripinfo id="f_5.1" depart="12.00" departLane="E0_0" departPos="5.10" departSpeed="0.00" departDelay="3.00" arrival="35.00" arrivalLane="E3_0" arrivalPos="61.11" arrivalSpeed="11.21" duration="23.00" routeLength="130.38" waitingTime="0.00" waitingCount="0" stopTime="0.00" timeLoss="12.14" rerouteNo="0" devices="tripinfo_f_5.1 routing_f_5.1" vType="car0" speedFactor="0.93" vaporized=""/>
    <tripinfo id="f_5.2" depart="18.00" departLane="E0_0" departPos="5.10" departSpeed="0.00" departDelay="0.00" arrival="40.00" arrivalLane="E3_0" arrivalPos="61.11" arrivalSpeed="11.39" duration="22.00" routeLength="130.38" waitingTime="0.00" waitingCount="0" stopTime="0.00" timeLoss="11.74" rerouteNo="0" devices="tripinfo_f_5.2 routing_f_5.2" vType="car0" speedFactor="1.01" vaporized=""/>
    <tripinfo id="f_5.3" depart="27.00" departLane="E0_0" departPos="5.10" departSpeed="0.00" departDelay="0.00" arrival="49.00" arrivalLane="E3_0" arrivalPos="61.11" arrivalSpeed="11.52" duration="22.00" routeLength="130.38" waitingTime="0.00" waitingCount="0" stopTime="0.00" timeLoss="11.20" rerouteNo="0" devices="tripinfo_f_5.3 routing_f_5.3" vType="car0" speedFactor="0.95" vaporized=""/>
    <tripinfo id="f_3.0" depart="0.00" departLane="-E1_0" departPos="5.10" departSpeed="0.00" departDelay="0.00" arrival="58.00" arrivalLane="E3_0" arrivalPos="61.11" arrivalSpeed="11.14" duration="58.00" routeLength="127.66" waitingTime="31.00" waitingCount="1" stopTime="0.00" timeLoss="46.22" rerouteNo="0" devices="tripinfo_f_3.0 routing_f_3.0" vType="car0" speedFactor="0.83" vaporized=""/>
    <tripinfo id="f_7.0" depart="14.00" departLane="-E3_0" departPos="5.10" departSpeed="0.00" departDelay="14.00" arrival="76.00" arrivalLane="E2_0" arrivalPos="102.50" arrivalSpeed="11.41" duration="62.00" routeLength="167.58" waitingTime="6.00" waitingCount="1" stopTime="0.00" timeLoss="47.18" rerouteNo="0" devices="tripinfo_f_7.0 routing_f_7.0" vType="car0" speedFactor="0.86" vaporized=""/>
    <tripinfo id="f_9.0" depart="21.00" departLane="-E3_0" departPos="5.10" departSpeed="0.00" departDelay="21.00" arrival="77.00" arrivalLane="-E0_0" arrivalPos="65.34" arrivalSpeed="10.44" duration="56.00" routeLength="135.56" waitingTime="5.00" waitingCount="1" stopTime="0.00" timeLoss="45.71" rerouteNo="0" devices="tripinfo_f_9.0 routing_f_9.0" vType="car0" speedFactor="1.03" vaporized=""/>
    <tripinfo id="f_7.1" depart="27.00" departLane="-E3_0" departPos="5.10" departSpeed="0.00" departDelay="18.00" arrival="82.00" arrivalLane="E2_0" arrivalPos="102.50" arrivalSpeed="12.02" duration="55.00" routeLength="167.58" waitingTime="4.00" waitingCount="1" stopTime="0.00" timeLoss="39.45" rerouteNo="0" devices="tripinfo_f_7.1 routing_f_7.1" vType="car0" speedFactor="0.88" vaporized=""/>
    <tripinfo id="f_9.1" depart="32.00" departLane="-E3_0" departPos="5.10" departSpeed="0.00" departDelay="23.00" arrival="85.00" arrivalLane="-E0_0" arrivalPos="65.34" arrivalSpeed="11.01" duration="53.00" routeLength="135.56" waitingTime="4.00" waitingCount="1" stopTime="0.00" timeLoss="41.60" rerouteNo="0" devices="tripinfo_f_9.1 routing_f_9.1" vType="car0" speedFactor="0.94" vaporized=""/>
    <tripinfo id="f_2.0" depart="0.00" departLane="-E3_0" departPos="5.10" departSpeed="0.00" departDelay="0.00" arrival="88.00" arrivalLane="E1_0" arrivalPos="57.23" arrivalSpeed="3.25" duration="88.00" routeLength="127.67" waitingTime="6.00" waitingCount="1" stopTime="0.00" timeLoss="78.95" rerouteNo="0" devices="tripinfo_f_2.0 routing_f_2.0" vType="car1" speedFactor="1.03" vaporized=""/>
    <tripinfo id="f_7.2" depart="37.00" departLane="-E3_0" departPos="5.10" departSpeed="0.00" departDelay="19.00" arrival="90.00" arrivalLane="E2_0" arrivalPos="102.50" arrivalSpeed="13.15" duration="53.00" routeLength="167.58" waitingTime="2.00" waitingCount="1" stopTime="0.00" timeLoss="39.32" rerouteNo="0" devices="tripinfo_f_7.2 routing_f_7.2" vType="car0" speedFactor="0.97" vaporized=""/>
    <tripinfo id="f_9.2" depart="42.00" departLane="-E3_0" departPos="5.10" departSpeed="0.00" departDelay="24.00" arrival="94.00" arrivalLane="-E0_0" arrivalPos="65.34" arrivalSpeed="11.07" duration="52.00" routeLength="135.56" waitingTime="1.00" waitingCount="1" stopTime="0.00" timeLoss="39.90" rerouteNo="0" devices="tripinfo_f_9.2 routing_f_9.2" vType="car0" speedFactor="0.89" vaporized=""/>
    <tripinfo id="f_7.3" depart="47.00" departLane="-E3_0" departPos="5.10" departSpeed="0.00" departDelay="20.00" arrival="98.00" arrivalLane="E2_0" arrivalPos="102.50" arrivalSpeed="14.45" duration="51.00" routeLength="167.58" waitingTime="1.00" waitingCount="1" stopTime="0.00" timeLoss="39.04" rerouteNo="0" devices="tripinfo_f_7.3 routing_f_7.3" vType="car0" speedFactor="1.13" vaporized=""/>
    <tripinfo id="f_4.0" depart="4.00" departLane="-E1_0" departPos="5.10" departSpeed="0.00" departDelay="4.00" arrival="105.00" arrivalLane="E2_0" arrivalPos="102.50" arrivalSpeed="9.68" duration="101.00" routeLength="168.82" waitingTime="63.00" waitingCount="2" stopTime="0.00" timeLoss="83.16" rerouteNo="0" devices="tripinfo_f_4.0 routing_f_4.0" vType="car2" speedFactor="1.05" vaporized=""/>
    <tripinfo id="f_5.4" depart="41.00" departLane="E0_0" departPos="5.10" departSpeed="0.00" departDelay="5.00" arrival="107.00" arrivalLane="E3_0" arrivalPos="61.11" arrivalSpeed="10.91" duration="66.00" routeLength="130.38" waitingTime="33.00" waitingCount="1" stopTime="0.00" timeLoss="57.04" rerouteNo="0" devices="tripinfo_f_5.4 routing_f_5.4" vType="car0" speedFactor="1.18" vaporized=""/>
    <tripinfo id="f_0.1" depart="36.00" departLane="E0_0" departPos="5.10" departSpeed="0.00" departDelay="0.00" arrival="108.00" arrivalLane="E2_0" arrivalPos="102.50" arrivalSpeed="9.93" duration="72.00" routeLength="177.16" waitingTime="39.00" waitingCount="1" stopTime="0.00" timeLoss="53.71" rerouteNo="0" devices="tripinfo_f_0.1 routing_f_0.1" vType="car2" speedFactor="1.18" vaporized=""/>
    <tripinfo id="f_8.1" depart="45.00" departLane="E0_0" departPos="5.10" departSpeed="0.00" departDelay="9.00" arrival="110.00" arrivalLane="E1_0" arrivalPos="57.23" arrivalSpeed="9.82" duration="65.00" routeLength="131.68" waitingTime="31.00" waitingCount="1" stopTime="0.00" timeLoss="51.48" rerouteNo="0" devices="tripinfo_f_8.1 routing_f_8.1" vType="car2" speedFactor="1.03" vaporized=""/>
    <tripinfo id="f_5.5" depart="49.00" departLane="E0_0" departPos="5.10" departSpeed="0.00" departDelay="4.00" arrival="113.00" arrivalLane="E3_0" arrivalPos="61.11" arrivalSpeed="11.90" duration="64.00" routeLength="130.38" waitingTime="26.00" waitingCount="1" stopTime="0.00" timeLoss="54.29" rerouteNo="0" devices="tripinfo_f_5.5 routing_f_5.5" vType="car0" speedFactor="1.09" vaporized=""/>
    <tripinfo id="f_5.6" depart="54.00" departLane="E0_0" departPos="5.10" departSpeed="0.00" departDelay="0.00" arrival="115.00" arrivalLane="E3_0" arrivalPos="61.11" arrivalSpeed="12.48" duration="61.00" routeLength="130.38" waitingTime="25.00" waitingCount="1" stopTime="0.00" timeLoss="51.61" rerouteNo="0" devices="tripinfo_f_5.6 routing_f_5.6" vType="car0" speedFactor="1.17" vaporized=""/>
    <tripinfo id="f_5.7" depart="63.00" departLane="E0_0" departPos="5.10" departSpeed="0.00" departDelay="0.00" arrival="117.00" arrivalLane="E3_0" arrivalPos="61.11" arrivalSpeed="12.23" duration="54.00" routeLength="130.38" waitingTime="21.00" waitingCount="1" stopTime="0.00" timeLoss="45.10" rerouteNo="0" devices="tripinfo_f_5.7 routing_f_5.7" vType="car0" speedFactor="1.14" vaporized=""/>
    <tripinfo id="f_0.2" depart="72.00" departLane="E0_0" departPos="5.10" departSpeed="0.00" departDelay="0.00" arrival="125.00" arrivalLane="E2_0" arrivalPos="102.50" arrivalSpeed="9.59" duration="53.00" routeLength="177.16" waitingTime="16.00" waitingCount="1" stopTime="0.00" timeLoss="34.44" rerouteNo="0" devices="tripinfo_f_0.2 routing_f_0.2" vType="car2" speedFactor="1.08" vaporized=""/>
    <tripinfo id="f_5.8" depart="76.00" departLane="E0_0" departPos="5.10" departSpeed="0.00" departDelay="4.00" arrival="126.00" arrivalLane="E3_0" arrivalPos="61.11" arrivalSpeed="11.05" duration="50.00" routeLength="130.38" waitingTime="14.00" waitingCount="1" stopTime="0.00" timeLoss="38.47" rerouteNo="0" devices="tripinfo_f_5.8 routing_f_5.8" vType="car0" speedFactor="0.91" vaporized=""/>
    <tripinfo id="f_8.2" depart="101.00" departLane="E0_0" departPos="5.10" departSpeed="0.00" departDelay="29.00" arrival="130.00" arrivalLane="E1_0" arrivalPos="57.23" arrivalSpeed="9.52" duration="29.00" routeLength="131.68" waitingTime="0.00" waitingCount="0" stopTime="0.00" timeLoss="14.81" rerouteNo="0" devices="tripinfo_f_8.2 routing_f_8.2" vType="car2" speedFactor="1.02" vaporized=""/>
    <tripinfo id="f_5.9" depart="107.00" departLane="E0_0" departPos="5.10" departSpeed="0.00" departDelay="26.00" arrival="133.00" arrivalLane="E3_0" arrivalPos="61.11" arrivalSpeed="11.76" duration="26.00" routeLength="130.38" waitingTime="0.00" waitingCount="0" stopTime="0.00" timeLoss="15.46" rerouteNo="0" devices="tripinfo_f_5.9 routing_f_5.9" vType="car0" speedFactor="0.98" vaporized=""/>
    <tripinfo id="f_5.10" depart="112.00" departLane="E0_0" departPos="5.10" departSpeed="0.00" departDelay="22.00" arrival="136.00" arrivalLane="E3_0" arrivalPos="61.11" arrivalSpeed="11.32" duration="24.00" routeLength="130.38" waitingTime="0.00" waitingCount="0" stopTime="0.00" timeLoss="12.97" rerouteNo="0" devices="tripinfo_f_5.10 routing_f_5.10" vType="car0" speedFactor="1.00" vaporized=""/>
    <tripinfo id="f_5.11" depart="116.00" departLane="E0_0" departPos="5.10" departSpeed="0.00" departDelay="17.00" arrival="139.00" arrivalLane="E3_0" arrivalPos="61.11" arrivalSpeed="11.27" duration="23.00" routeLength="130.38" waitingTime="0.00" waitingCount="0" stopTime="0.00" timeLoss="12.30" rerouteNo="0" devices="tripinfo_f_5.11 routing_f_5.11" vType="car0" speedFactor="1.04" vaporized=""/>
    <tripinfo id="f_10.0" depart="4.00" departLane="-E2_0" departPos="5.10" departSpeed="0.00" departDelay="4.00" arrival="174.00" arrivalLane="E3_0" arrivalPos="61.11" arrivalSpeed="3.28" duration="170.00" routeLength="172.73" waitingTime="65.00" waitingCount="2" stopTime="0.00" timeLoss="156.88" rerouteNo="0" devices="tripinfo_f_10.0 routing_f_10.0" vType="car1" speedFactor="1.01" vaporized=""/>
    <tripinfo id="f_3.1" depart="9.00" departLane="-E1_0" departPos="5.10" departSpeed="0.00" departDelay="0.00" arrival="177.00" arrivalLane="E3_0" arrivalPos="61.11" arrivalSpeed="4.91" duration="168.00" routeLength="127.66" waitingTime="99.00" waitingCount="4" stopTime="0.00" timeLoss="158.59" rerouteNo="0" devices="tripinfo_f_3.1 routing_f_3.1" vType="car0" speedFactor="0.99" vaporized=""/>
    <tripinfo id="f_3.2" depart="18.00" departLane="-E1_0" departPos="5.10" departSpeed="0.00" departDelay="0.00" arrival="180.00" arrivalLane="E3_0" arrivalPos="61.11" arrivalSpeed="6.35" duration="162.00" routeLength="127.66" waitingTime="88.00" waitingCount="4" stopTime="0.00" timeLoss="152.64" rerouteNo="0" devices="tripinfo_f_3.2 routing_f_3.2" vType="car0" speedFactor="1.02" vaporized=""/>
    <tripinfo id="f_3.3" depart="27.00" departLane="-E1_0" departPos="5.10" departSpeed="0.00" departDelay="0.00" arrival="182.00" arrivalLane="E3_0" arrivalPos="61.11" arrivalSpeed="7.07" duration="155.00" routeLength="127.66" waitingTime="81.00" waitingCount="4" stopTime="0.00" timeLoss="144.85" rerouteNo="0" devices="tripinfo_f_3.3 routing_f_3.3" vType="car0" speedFactor="0.92" vaporized=""/>
    <tripinfo id="f_3.4" depart="36.00" departLane="-E1_0" departPos="5.10" departSpeed="0.00" departDelay="0.00" arrival="184.00" arrivalLane="E3_0" arrivalPos="61.11" arrivalSpeed="7.83" duration="148.00" routeLength="127.66" waitingTime="74.00" waitingCount="4" stopTime="0.00" timeLoss="138.98" rerouteNo="0" devices="tripinfo_f_3.4 routing_f_3.4" vType="car0" speedFactor="1.02" vaporized=""/>
    <tripinfo id="f_9.3" depart="66.00" departLane="-E3_0" departPos="5.10" departSpeed="0.00" departDelay="39.00" arrival="185.00" arrivalLane="-E0_0" arrivalPos="65.34" arrivalSpeed="11.08" duration="119.00" routeLength="135.56" waitingTime="77.00" waitingCount="2" stopTime="0.00" timeLoss="107.30" rerouteNo="0" devices="tripinfo_f_9.3 routing_f_9.3" vType="car0" speedFactor="0.93" vaporized=""/>
    <tripinfo id="f_4.1" depart="41.00" departLane="-E1_0" departPos="5.10" departSpeed="0.00" departDelay="5.00" arrival="191.00" arrivalLane="E2_0" arrivalPos="102.50" arrivalSpeed="9.69" duration="150.00" routeLength="168.82" waitingTime="75.00" waitingCount="5" stopTime="0.00" timeLoss="132.25" rerouteNo="0" devices="tripinfo_f_4.1 routing_f_4.1" vType="car2" speedFactor="0.97" vaporized=""/>
    <tripinfo id="f_5.12" depart="126.00" departLane="E0_0" departPos="5.10" departSpeed="0.00" departDelay="18.00" arrival="196.00" arrivalLane="E3_0" arrivalPos="61.11" arrivalSpeed="11.09" duration="70.00" routeLength="130.38" waitingTime="37.00" waitingCount="1" stopTime="0.00" timeLoss="58.22" rerouteNo="0" devices="tripinfo_f_5.12 routing_f_5.12" vType="car0" speedFactor="0.91" vaporized=""/>
    <tripinfo id="f_0.3" depart="121.00" departLane="E0_0" departPos="5.10" departSpeed="0.00" departDelay="13.00" arrival="197.00" arrivalLane="E2_0" arrivalPos="102.50" arrivalSpeed="9.53" duration="76.00" routeLength="177.16" waitingTime="44.00" waitingCount="1" stopTime="0.00" timeLoss="58.26" rerouteNo="0" devices="tripinfo_f_0.3 routing_f_0.3" vType="car2" speedFactor="1.02" vaporized=""/>
    <tripinfo id="f_8.3" depart="130.00" departLane="E0_0" departPos="5.10" departSpeed="0.00" departDelay="22.00" arrival="199.00" arrivalLane="E1_0" arrivalPos="57.23" arrivalSpeed="9.62" duration="69.00" routeLength="131.68" waitingTime="35.00" waitingCount="1" stopTime="0.00" timeLoss="55.58" rerouteNo="0" devices="tripinfo_f_8.3 routing_f_8.3" vType="car2" speedFactor="1.06" vaporized=""/>
    <tripinfo id="f_5.13" depart="135.00" departLane="E0_0" departPos="5.10" departSpeed="0.00" departDelay="18.00" arrival="203.00" arrivalLane="E3_0" arrivalPos="61.11" arrivalSpeed="11.45" duration="68.00" routeLength="130.38" waitingTime="31.00" waitingCount="1" stopTime="0.00" timeLoss="58.19" rerouteNo="0" devices="tripinfo_f_5.13 routing_f_5.13" vType="car0" speedFactor="1.07" vaporized=""/>
    <tripinfo id="f_5.14" depart="140.00" departLane="E0_0" departPos="5.10" departSpeed="0.00" departDelay="14.00" arrival="206.00" arrivalLane="E3_0" arrivalPos="61.11" arrivalSpeed="11.12" duration="66.00" routeLength="130.38" waitingTime="28.00" waitingCount="1" stopTime="0.00" timeLoss="53.24" rerouteNo="0" devices="tripinfo_f_5.14 routing_f_5.14" vType="car0" speedFactor="0.87" vaporized=""/>
    <tripinfo id="f_5.15" depart="144.00" departLane="E0_0" departPos="5.10" departSpeed="0.00" departDelay="9.00" arrival="208.00" arrivalLane="E3_0" arrivalPos="61.11" arrivalSpeed="11.23" duration="64.00" routeLength="130.38" waitingTime="27.00" waitingCount="1" stopTime="0.00" timeLoss="53.14" rerouteNo="0" devices="tripinfo_f_5.15 routing_f_5.15" vType="car0" speedFactor="1.00" vaporized=""/>
    <tripinfo id="f_0.4" depart="149.00" departLane="E0_0" departPos="5.10" departSpeed="0.00" departDelay="5.00" arrival="214.00" arrivalLane="E2_0" arrivalPos="102.50" arrivalSpeed="9.85" duration="65.00" routeLength="177.16" waitingTime="28.00" waitingCount="1" stopTime="0.00" timeLoss="46.93" rerouteNo="0" devices="tripinfo_f_0.4 routing_f_0.4" vType="car2" speedFactor="0.94" vaporized=""/>
    <tripinfo id="f_5.16" depart="154.00" departLane="E0_0" departPos="5.10" departSpeed="0.00" departDelay="10.00" arrival="216.00" arrivalLane="E3_0" arrivalPos="61.11" arrivalSpeed="10.77" duration="62.00" routeLength="130.38" waitingTime="24.00" waitingCount="1" stopTime="0.00" timeLoss="49.04" rerouteNo="0" devices="tripinfo_f_5.16 routing_f_5.16" vType="car0" speedFactor="0.82" vaporized=""/>
    <tripinfo id="f_8.4" depart="189.00" departLane="E0_0" departPos="5.10" departSpeed="0.00" departDelay="45.00" arrival="219.00" arrivalLane="E1_0" arrivalPos="57.23" arrivalSpeed="9.56" duration="30.00" routeLength="131.68" waitingTime="1.00" waitingCount="1" stopTime="0.00" timeLoss="16.03" rerouteNo="0" devices="tripinfo_f_8.4 routing_f_8.4" vType="car2" speedFactor="1.03" vaporized=""/>
    <tripinfo id="f_5.17" depart="196.00" departLane="E0_0" departPos="5.10" departSpeed="0.00" departDelay="43.00" arrival="223.00" arrivalLane="E3_0" arrivalPos="61.11" arrivalSpeed="11.74" duration="27.00" routeLength="130.38" waitingTime="0.00" waitingCount="0" stopTime="0.00" timeLoss="16.07" rerouteNo="0" devices="tripinfo_f_5.17 routing_f_5.17" vType="car0" speedFactor="1.01" vaporized=""/>
    <tripinfo id="f_5.18" depart="201.00" departLane="E0_0" departPos="5.10" departSpeed="0.00" departDelay="39.00" arrival="225.00" arrivalLane="E3_0" arrivalPos="61.11" arrivalSpeed="11.80" duration="24.00" routeLength="130.38" waitingTime="0.00" waitingCount="0" stopTime="0.00" timeLoss="14.88" rerouteNo="0" devices="tripinfo_f_5.18 routing_f_5.18" vType="car0" speedFactor="1.16" vaporized=""/>
    <tripinfo id="f_5.19" depart="206.00" departLane="E0_0" departPos="5.10" departSpeed="0.00" departDelay="35.00" arrival="228.00" arrivalLane="E3_0" arrivalPos="61.11" arrivalSpeed="11.22" duration="22.00" routeLength="130.38" waitingTime="0.00" waitingCount="0" stopTime="0.00" timeLoss="11.83" rerouteNo="0" devices="tripinfo_f_5.19 routing_f_5.19" vType="car0" speedFactor="1.00" vaporized=""/>
    <tripinfo id="f_11.0" depart="18.00" departLane="-E2_0" departPos="5.10" departSpeed="0.00" departDelay="18.00" arrival="235.00" arrivalLane="E3_0" arrivalPos="61.11" arrivalSpeed="10.55" duration="217.00" routeLength="172.73" waitingTime="140.00" waitingCount="4" stopTime="0.00" timeLoss="204.39" rerouteNo="0" devices="tripinfo_f_11.0 routing_f_11.0" vType="car0" speedFactor="1.08" vaporized=""/>
    <tripinfo id="f_3.5" depart="54.00" departLane="-E1_0" departPos="5.10" departSpeed="0.00" departDelay="9.00" arrival="238.00" arrivalLane="E3_0" arrivalPos="61.11" arrivalSpeed="10.68" duration="184.00" routeLength="127.66" waitingTime="115.00" waitingCount="4" stopTime="0.00" timeLoss="175.08" rerouteNo="0" devices="tripinfo_f_3.5 routing_f_3.5" vType="car0" speedFactor="1.04" vaporized=""/>
    <tripinfo id="f_3.6" depart="61.00" departLane="-E1_0" departPos="5.10" departSpeed="0.00" departDelay="7.00" arrival="240.00" arrivalLane="E3_0" arrivalPos="61.11" arrivalSpeed="11.17" duration="179.00" routeLength="127.66" waitingTime="111.00" waitingCount="4" stopTime="0.00" timeLoss="168.08" rerouteNo="0" devices="tripinfo_f_3.6 routing_f_3.6" vType="car0" speedFactor="0.85" vaporized=""/>
    <tripinfo id="f_3.7" depart="150.00" departLane="-E1_0" departPos="5.10" departSpeed="0.00" departDelay="87.00" arrival="242.00" arrivalLane="E3_0" arrivalPos="61.11" arrivalSpeed="11.34" duration="92.00" routeLength="127.66" waitingTime="43.00" waitingCount="1" stopTime="0.00" timeLoss="81.66" rerouteNo="0" devices="tripinfo_f_3.7 routing_f_3.7" vType="car0" speedFactor="0.90" vaporized=""/>
    <tripinfo id="f_3.8" depart="160.00" departLane="-E1_0" departPos="5.10" departSpeed="0.00" departDelay="88.00" arrival="245.00" arrivalLane="E3_0" arrivalPos="61.11" arrivalSpeed="11.99" duration="85.00" routeLength="127.66" waitingTime="43.00" waitingCount="1" stopTime="0.00" timeLoss="73.89" rerouteNo="0" devices="tripinfo_f_3.8 routing_f_3.8" vType="car0" speedFactor="0.88" vaporized=""/>
    <tripinfo id="f_7.4" depart="86.00" departLane="-E3_0" departPos="5.10" departSpeed="0.00" departDelay="50.00" arrival="257.00" arrivalLane="E2_0" arrivalPos="102.50" arrivalSpeed="12.31" duration="171.00" routeLength="167.58" waitingTime="93.00" waitingCount="3" stopTime="0.00" timeLoss="156.39" rerouteNo="0" devices="tripinfo_f_7.4 routing_f_7.4" vType="car0" speedFactor="0.90" vaporized=""/>
    <tripinfo id="f_9.4" depart="94.00" departLane="-E3_0" departPos="5.10" departSpeed="0.00" departDelay="58.00" arrival="258.00" arrivalLane="-E0_0" arrivalPos="65.34" arrivalSpeed="11.07" duration="164.00" routeLength="135.56" waitingTime="92.00" waitingCount="3" stopTime="0.00" timeLoss="152.77" rerouteNo="0" devices="tripinfo_f_9.4 routing_f_9.4" vType="car0" speedFactor="0.96" vaporized=""/>
    <tripinfo id="f_7.5" depart="100.00" departLane="-E3_0" departPos="5.10" departSpeed="0.00" departDelay="55.00" arrival="263.00" arrivalLane="E2_0" arrivalPos="102.50" arrivalSpeed="13.62" duration="163.00" routeLength="167.58" waitingTime="91.00" waitingCount="3" stopTime="0.00" timeLoss="149.23" rerouteNo="0" devices="tripinfo_f_7.5 routing_f_7.5" vType="car0" speedFactor="1.00" vaporized=""/>
    <tripinfo id="f_9.5" depart="105.00" departLane="-E3_0" departPos="5.10" departSpeed="0.00" departDelay="60.00" arrival="266.00" arrivalLane="-E0_0" arrivalPos="65.34" arrivalSpeed="11.99" duration="161.00" routeLength="135.56" waitingTime="89.00" waitingCount="3" stopTime="0.00" timeLoss="148.50" rerouteNo="0" devices="tripinfo_f_9.5 routing_f_9.5" vType="car0" speedFactor="0.90" vaporized=""/>
    <tripinfo id="f_2.1" depart="72.00" departLane="-E3_0" departPos="5.10" departSpeed="0.00" departDelay="36.00" arrival="269.00" arrivalLane="E1_0" arrivalPos="57.23" arrivalSpeed="3.22" duration="197.00" routeLength="127.67" waitingTime="95.00" waitingCount="3" stopTime="0.00" timeLoss="187.60" rerouteNo="0" devices="tripinfo_f_2.1 routing_f_2.1" vType="car1" speedFactor="0.99" vaporized=""/>
    <tripinfo id="f_7.6" depart="110.00" departLane="-E3_0" departPos="5.10" departSpeed="0.00" departDelay="56.00" arrival="270.00" arrivalLane="E2_0" arrivalPos="102.50" arrivalSpeed="13.36" duration="160.00" routeLength="167.58" waitingTime="89.00" waitingCount="3" stopTime="0.00" timeLoss="147.23" rerouteNo="0" devices="tripinfo_f_7.6 routing_f_7.6" vType="car0" speedFactor="1.02" vaporized=""/>
    <tripinfo id="f_9.6" depart="116.00" departLane="-E3_0" departPos="5.10" departSpeed="0.00" departDelay="62.00" arrival="274.00" arrivalLane="-E0_0" arrivalPos="65.34" arrivalSpeed="10.99" duration="158.00" routeLength="135.56" waitingTime="87.00" waitingCount="3" stopTime="0.00" timeLoss="148.26" rerouteNo="0" devices="tripinfo_f_9.6 routing_f_9.6" vType="car0" speedFactor="1.10" vaporized=""/>
    <tripinfo id="f_7.7" depart="181.00" departLane="-E3_0" departPos="5.10" departSpeed="0.00" departDelay="118.00" arrival="279.00" arrivalLane="E2_0" arrivalPos="102.50" arrivalSpeed="13.11" duration="98.00" routeLength="167.58" waitingTime="44.00" waitingCount="3" stopTime="0.00" timeLoss="85.04" rerouteNo="0" devices="tripinfo_f_7.7 routing_f_7.7" vType="car0" speedFactor="1.02" vaporized=""/>
    <tripinfo id="f_4.2" depart="167.00" departLane="-E1_0" departPos="5.10" departSpeed="0.00" departDelay="95.00" arrival="285.00" arrivalLane="E2_0" arrivalPos="102.50" arrivalSpeed="9.98" duration="118.00" routeLength="168.82" waitingTime="69.00" waitingCount="2" stopTime="0.00" timeLoss="100.51" rerouteNo="0" devices="tripinfo_f_4.2 routing_f_4.2" vType="car2" speedFactor="0.91" vaporized=""/>
    <tripinfo id="f_5.20" depart="214.00" departLane="E0_0" departPos="5.10" departSpeed="0.00" departDelay="34.00" arrival="286.00" arrivalLane="E3_0" arrivalPos="61.11" arrivalSpeed="10.57" duration="72.00" routeLength="130.38" waitingTime="38.00" waitingCount="1" stopTime="0.00" timeLoss="62.33" rerouteNo="0" devices="tripinfo_f_5.20 routing_f_5.20" vType="car0" speedFactor="1.08" vaporized=""/>
    <tripinfo id="f_0.5" depart="210.00" departLane="E0_0" departPos="5.10" departSpeed="0.00" departDelay="30.00" arrival="288.00" arrivalLane="E2_0" arrivalPos="102.50" arrivalSpeed="9.96" duration="78.00" routeLength="177.16" waitingTime="45.00" waitingCount="1" stopTime="0.00" timeLoss="59.49" rerouteNo="0" devices="tripinfo_f_0.5 routing_f_0.5" vType="car2" speedFactor="0.96" vaporized=""/>
    <tripinfo id="f_1.1" depart="40.00" departLane="-E2_0" departPos="5.10" departSpeed="0.00" departDelay="31.00" arrival="300.00" arrivalLane="-E0_0" arrivalPos="65.34" arrivalSpeed="9.81" duration="260.00" routeLength="177.16" waitingTime="155.00" waitingCount="6" stopTime="0.00" timeLoss="242.11" rerouteNo="0" devices="tripinfo_f_1.1 routing_f_1.1" vType="car2" speedFactor="1.05" vaporized=""/>
    <tripinfo id="f_5.21" depart="223.00" departLane="E0_0" departPos="5.10" departSpeed="0.00" departDelay="34.00" arrival="310.00" arrivalLane="E3_0" arrivalPos="61.11" arrivalSpeed="9.62" duration="87.00" routeLength="130.38" waitingTime="40.00" waitingCount="2" stopTime="0.00" timeLoss="75.86" rerouteNo="0" devices="tripinfo_f_5.21 routing_f_5.21" vType="car0" speedFactor="0.91" vaporized=""/>
    <tripinfo id="f_6.0" depart="26.00" departLane="-E2_0" departPos="5.10" departSpeed="0.00" departDelay="26.00" arrival="312.00" arrivalLane="E1_0" arrivalPos="57.23" arrivalSpeed="3.07" duration="286.00" routeLength="163.66" waitingTime="152.00" waitingCount="5" stopTime="0.00" timeLoss="272.70" rerouteNo="0" devices="tripinfo_f_6.0 routing_f_6.0" vType="car1" speedFactor="0.94" vaporized=""/>
    <tripinfo id="f_5.22" depart="227.00" departLane="E0_0" departPos="5.10" departSpeed="0.00" departDelay="29.00" arrival="312.00" arrivalLane="E3_0" arrivalPos="61.11" arrivalSpeed="10.63" duration="85.00" routeLength="130.38" waitingTime="38.00" waitingCount="2" stopTime="0.00" timeLoss="73.50" rerouteNo="0" devices="tripinfo_f_5.22 routing_f_5.22" vType="car0" speedFactor="0.90" vaporized=""/>
    <tripinfo id="f_5.23" depart="231.00" departLane="E0_0" departPos="5.10" departSpeed="0.00" departDelay="24.00" arrival="314.00" arrivalLane="E3_0" arrivalPos="61.11" arrivalSpeed="10.87" duration="83.00" routeLength="130.38" waitingTime="34.00" waitingCount="2" stopTime="0.00" timeLoss="73.28" rerouteNo="0" devices="tripinfo_f_5.23 routing_f_5.23" vType="car0" speedFactor="1.03" vaporized=""/>
    <tripinfo id="f_8.5" depart="219.00" departLane="E0_0" departPos="5.10" departSpeed="0.00" departDelay="39.00" arrival="315.00" arrivalLane="E1_0" arrivalPos="57.23" arrivalSpeed="4.29" duration="96.00" routeLength="131.68" waitingTime="49.00" waitingCount="2" stopTime="0.00" timeLoss="82.30" rerouteNo="0" devices="tripinfo_f_8.5 routing_f_8.5" vType="car2" speedFactor="0.88" vaporized=""/>
    <tripinfo id="f_0.6" depart="235.00" departLane="E0_0" departPos="5.10" departSpeed="0.00" departDelay="19.00" arrival="322.00" arrivalLane="E2_0" arrivalPos="102.50" arrivalSpeed="9.71" duration="87.00" routeLength="177.16" waitingTime="34.00" waitingCount="2" stopTime="0.00" timeLoss="68.74" rerouteNo="0" devices="tripinfo_f_0.6 routing_f_0.6" vType="car2" speedFactor="1.10" vaporized=""/>
    <tripinfo id="f_11.1" depart="47.00" departLane="-E2_0" departPos="5.10" departSpeed="0.00" departDelay="38.00" arrival="324.00" arrivalLane="E3_0" arrivalPos="61.11" arrivalSpeed="9.92" duration="277.00" routeLength="172.73" waitingTime="163.00" waitingCount="8" stopTime="0.00" timeLoss="265.30" rerouteNo="0" devices="tripinfo_f_11.1 routing_f_11.1" vType="car0" speedFactor="1.12" vaporized=""/>
    <tripinfo id="f_3.9" depart="172.00" departLane="-E1_0" departPos="5.10" departSpeed="0.00" departDelay="91.00" arrival="328.00" arrivalLane="E3_0" arrivalPos="61.11" arrivalSpeed="10.02" duration="156.00" routeLength="127.66" waitingTime="105.00" waitingCount="3" stopTime="0.00" timeLoss="146.13" rerouteNo="0" devices="tripinfo_f_3.9 routing_f_3.9" vType="car0" speedFactor="0.96" vaporized=""/>