<?xml version="1.0" encoding="UTF-8"?>

<!-- generated on 2025-02-04 21:34:51 by Eclipse SUMO GUI Version 1.21.0
<sumoConfiguration xmlns:xsi="http://www.w3.org/2001/XMLSchema-instance" xsi:noNamespaceSchemaLocation="http://sumo.dlr.de/xsd/sumoConfiguration.xsd">

    <input>
        <net-file value="C:\DATA\ROB\PRACA\praca_In\_KOD\2x2_END\2x2.net.xml"/>
        <route-files value="C:\DATA\ROB\PRACA\praca_In\_KOD\2x2_END\3x3.rou.xml"/>
        <additional-files value="C:\DATA\ROB\PRACA\praca_In\_KOD\2x2_END\3x3.add.xml"/>
    </input>

    <output>
        <tripinfo-output value="C:\DATA\ROB\PRACA\praca_In\_KOD\2x2_END\stat/tripinfo.xml"/>
        <vehroute-output value="C:\DATA\ROB\PRACA\praca_In\_KOD\2x2_END\stat/vehroute.xml"/>
    </output>

    <time>
        <begin value="0"/>
        <end value="10000"/>
    </time>

</sumoConfiguration>
-->

<routes xmlns:xsi="http://www.w3.org/2001/XMLSchema-instance" xsi:noNamespaceSchemaLocation="http://sumo.dlr.de/xsd/routes_file.xsd">
</routes>
