<?xml version="1.0" encoding="UTF-8"?>

<!-- generated on 2024-08-12 22:23:51 by Eclipse SUMO GUI Version 1.18.0
<configuration xmlns:xsi="http://www.w3.org/2001/XMLSchema-instance" xsi:noNamespaceSchemaLocation="http://sumo.dlr.de/xsd/sumoConfiguration.xsd">

    <input>
        <net-file value="C:\DATA\ROB\7SEM\test\praca_In\siatka_3x3\3x3.net.xml"/>
        <route-files value="C:\DATA\ROB\7SEM\test\praca_In\siatka_3x3\3x3.rou.xml"/>
    </input>

    <output>
        <tripinfo-output value="C:\DATA\ROB\7SEM\test\praca_In\siatka_3x3\tripinfo.xml"/>
    </output>

</configuration>
-->

<tripinfos xmlns:xsi="http://www.w3.org/2001/XMLSchema-instance" xsi:noNamespaceSchemaLocation="http://sumo.dlr.de/xsd/tripinfo_file.xsd">
    <tripinfo id="t_16" depart="0.00" departLane="E16_0" departPos="5.10" departSpeed="0.00" departDelay="0.00" arrival="35.00" arrivalLane="E19_0" arrivalPos="92.80" arrivalSpeed="12.82" duration="35.00" routeLength="394.90" waitingTime="0.00" waitingCount="0" stopTime="0.00" timeLoss="4.60" rerouteNo="0" devices="tripinfo_t_16 routing_t_16" vType="DEFAULT_VEHTYPE" speedFactor="0.94" vaporized=""/>
    <tripinfo id="t_17" depart="0.00" departLane="-E19_0" departPos="5.10" departSpeed="0.00" departDelay="0.00" arrival="37.00" arrivalLane="-E16_0" arrivalPos="92.80" arrivalSpeed="11.78" duration="37.00" routeLength="394.90" waitingTime="0.00" waitingCount="0" stopTime="0.00" timeLoss="3.63" rerouteNo="0" devices="tripinfo_t_17 routing_t_17" vType="DEFAULT_VEHTYPE" speedFactor="0.86" vaporized=""/>
    <tripinfo id="t_4" depart="0.00" departLane="E4_0" departPos="5.10" departSpeed="0.00" departDelay="0.00" arrival="39.00" arrivalLane="E7_0" arrivalPos="92.80" arrivalSpeed="14.18" duration="39.00" routeLength="394.90" waitingTime="0.00" waitingCount="0" stopTime="0.00" timeLoss="11.67" rerouteNo="0" devices="tripinfo_t_4 routing_t_4" vType="DEFAULT_VEHTYPE" speedFactor="1.05" vaporized=""/>
    <tripinfo id="t_8" depart="0.00" departLane="-E7_0" departPos="5.10" departSpeed="0.00" departDelay="0.00" arrival="41.00" arrivalLane="-E4_0" arrivalPos="92.80" arrivalSpeed="11.36" duration="41.00" routeLength="394.90" waitingTime="0.00" waitingCount="0" stopTime="0.00" timeLoss="8.56" rerouteNo="0" devices="tripinfo_t_8 routing_t_8" vType="DEFAULT_VEHTYPE" speedFactor="0.88" vaporized=""/>
    <tripinfo id="t_7" depart="3.00" departLane="-E3_0" departPos="5.10" departSpeed="0.00" departDelay="3.00" arrival="43.00" arrivalLane="-E0_0" arrivalPos="92.80" arrivalSpeed="11.96" duration="40.00" routeLength="394.90" waitingTime="0.00" waitingCount="0" stopTime="0.00" timeLoss="9.30" rerouteNo="0" devices="tripinfo_t_7 routing_t_7" vType="DEFAULT_VEHTYPE" speedFactor="0.93" vaporized=""/>
    <tripinfo id="t_6" depart="9.00" departLane="E12_0" departPos="5.10" departSpeed="0.00" departDelay="9.00" arrival="46.00" arrivalLane="E15_0" arrivalPos="92.80" arrivalSpeed="13.39" duration="37.00" routeLength="394.90" waitingTime="0.00" waitingCount="0" stopTime="0.00" timeLoss="7.63" rerouteNo="0" devices="tripinfo_t_6 routing_t_6" vType="DEFAULT_VEHTYPE" speedFactor="0.99" vaporized=""/>
    <tripinfo id="t_9" depart="3.00" departLane="-E11_0" departPos="5.10" departSpeed="0.00" departDelay="3.00" arrival="48.00" arrivalLane="-E8_0" arrivalPos="92.80" arrivalSpeed="12.82" duration="45.00" routeLength="394.90" waitingTime="0.00" waitingCount="0" stopTime="0.00" timeLoss="14.37" rerouteNo="0" devices="tripinfo_t_9 routing_t_9" vType="DEFAULT_VEHTYPE" speedFactor="0.94" vaporized=""/>
    <tripinfo id="t_1" depart="0.00" departLane="E0_0" departPos="5.10" departSpeed="0.00" departDelay="0.00" arrival="50.00" arrivalLane="E3_0" arrivalPos="92.80" arrivalSpeed="12.03" duration="50.00" routeLength="394.90" waitingTime="7.00" waitingCount="1" stopTime="0.00" timeLoss="19.04" rerouteNo="0" devices="tripinfo_t_1 routing_t_1" vType="DEFAULT_VEHTYPE" speedFactor="0.94" vaporized=""/>
    <tripinfo id="t_5" depart="3.00" departLane="E8_0" departPos="5.10" departSpeed="0.00" departDelay="3.00" arrival="52.00" arrivalLane="E11_0" arrivalPos="92.80" arrivalSpeed="14.85" duration="49.00" routeLength="394.90" waitingTime="5.00" waitingCount="1" stopTime="0.00" timeLoss="23.11" rerouteNo="0" devices="tripinfo_t_5 routing_t_5" vType="DEFAULT_VEHTYPE" speedFactor="1.12" vaporized=""/>
    <tripinfo id="t_3" depart="6.00" departLane="E12_0" departPos="5.10" departSpeed="0.00" departDelay="6.00" arrival="55.00" arrivalLane="E19_0" arrivalPos="92.80" arrivalSpeed="13.12" duration="49.00" routeLength="489.33" waitingTime="0.00" waitingCount="0" stopTime="0.00" timeLoss="12.62" rerouteNo="0" devices="tripinfo_t_3 routing_t_3" vType="DEFAULT_VEHTYPE" speedFactor="1.03" vaporized=""/>
    <tripinfo id="t_0" depart="0.00" departLane="E12_0" departPos="5.10" departSpeed="0.00" departDelay="0.00" arrival="58.00" arrivalLane="E11_0" arrivalPos="92.80" arrivalSpeed="13.47" duration="58.00" routeLength="583.56" waitingTime="0.00" waitingCount="0" stopTime="0.00" timeLoss="14.54" rerouteNo="0" devices="tripinfo_t_0 routing_t_0" vType="DEFAULT_VEHTYPE" speedFactor="1.06" vaporized=""/>
    <tripinfo id="t_10" depart="0.00" departLane="E20_0" departPos="5.10" departSpeed="0.00" departDelay="0.00" arrival="61.00" arrivalLane="-E8_0" arrivalPos="92.80" arrivalSpeed="13.72" duration="61.00" routeLength="578.37" waitingTime="0.00" waitingCount="0" stopTime="0.00" timeLoss="16.59" rerouteNo="0" devices="tripinfo_t_10 routing_t_10" vType="DEFAULT_VEHTYPE" speedFactor="1.01" vaporized=""/>
    <tripinfo id="t_11" depart="0.00" departLane="-E3_0" departPos="5.10" departSpeed="0.00" departDelay="0.00" arrival="68.00" arrivalLane="E15_0" arrivalPos="92.80" arrivalSpeed="13.84" duration="68.00" routeLength="583.53" waitingTime="8.00" waitingCount="1" stopTime="0.00" timeLoss="25.75" rerouteNo="0" devices="tripinfo_t_11 routing_t_11" vType="DEFAULT_VEHTYPE" speedFactor="1.08" vaporized=""/>
    <tripinfo id="t_13" depart="0.00" departLane="-E23_0" departPos="5.10" departSpeed="0.00" departDelay="0.00" arrival="69.00" arrivalLane="-E0_0" arrivalPos="92.80" arrivalSpeed="10.68" duration="69.00" routeLength="583.56" waitingTime="0.00" waitingCount="0" stopTime="0.00" timeLoss="13.20" rerouteNo="0" devices="tripinfo_t_13 routing_t_13" vType="DEFAULT_VEHTYPE" speedFactor="0.83" vaporized=""/>
    <tripinfo id="t_14" depart="0.00" departLane="-E15_0" departPos="5.10" departSpeed="0.00" departDelay="0.00" arrival="70.00" arrivalLane="E3_0" arrivalPos="92.80" arrivalSpeed="13.65" duration="70.00" routeLength="578.37" waitingTime="7.00" waitingCount="1" stopTime="0.00" timeLoss="26.18" rerouteNo="0" devices="tripinfo_t_14 routing_t_14" vType="DEFAULT_VEHTYPE" speedFactor="1.05" vaporized=""/>
    <tripinfo id="t_15" depart="0.00" departLane="E8_0" departPos="5.10" departSpeed="0.00" departDelay="0.00" arrival="71.00" arrivalLane="-E20_0" arrivalPos="92.80" arrivalSpeed="11.97" duration="71.00" routeLength="583.53" waitingTime="2.00" waitingCount="1" stopTime="0.00" timeLoss="19.43" rerouteNo="0" devices="tripinfo_t_15 routing_t_15" vType="DEFAULT_VEHTYPE" speedFactor="0.89" vaporized=""/>
    <tripinfo id="t_2" depart="3.00" departLane="E12_0" departPos="5.10" departSpeed="0.00" departDelay="3.00" arrival="71.00" arrivalLane="E23_0" arrivalPos="92.80" arrivalSpeed="14.76" duration="68.00" routeLength="583.76" waitingTime="4.00" waitingCount="2" stopTime="0.00" timeLoss="26.40" rerouteNo="0" devices="tripinfo_t_2 routing_t_2" vType="DEFAULT_VEHTYPE" speedFactor="1.09" vaporized=""/>
    <tripinfo id="t_12" depart="0.00" departLane="-E11_0" departPos="5.10" departSpeed="0.00" departDelay="0.00" arrival="72.00" arrivalLane="-E12_0" arrivalPos="92.80" arrivalSpeed="13.68" duration="72.00" routeLength="578.39" waitingTime="5.00" waitingCount="1" stopTime="0.00" timeLoss="27.12" rerouteNo="0" devices="tripinfo_t_12 routing_t_12" vType="DEFAULT_VEHTYPE" speedFactor="1.03" vaporized=""/>
</tripinfos>
