<?xml version="1.0" encoding="UTF-8"?>

<!-- generated on 2024-07-24 20:14:34 by Eclipse SUMO sumo Version 1.18.0
<configuration xmlns:xsi="http://www.w3.org/2001/XMLSchema-instance" xsi:noNamespaceSchemaLocation="http://sumo.dlr.de/xsd/sumoConfiguration.xsd">

    <input>
        <net-file value="01_skrzyzowanieX.net.xml"/>
        <route-files value="01_skrzyzowanieX.rou.xml"/>
    </input>

    <output>
        <vehroute-output value="veh_routes.xml"/>
    </output>

</configuration>
-->

<routes xmlns:xsi="http://www.w3.org/2001/XMLSchema-instance" xsi:noNamespaceSchemaLocation="http://sumo.dlr.de/xsd/routes_file.xsd">
    <vehicle id="f_0.0" type="car2" depart="0.00" arrival="25.00">
        <route edges="E0 E2"/>
    </vehicle>

    <vehicle id="f_1.0" type="car2" depart="0.00" arrival="25.00">
        <route edges="-E2 -E0"/>
    </vehicle>

    <vehicle id="f_5.0" type="car0" depart="4.00" arrival="28.00">
        <route edges="E0 E3"/>
    </vehicle>

    <vehicle id="f_8.0" type="car2" depart="8.00" arrival="33.00">
        <route edges="E0 E1"/>
    </vehicle>

    <vehicle id="f_5.1" type="car0" depart="12.00" arrival="36.00">
        <route edges="E0 E3"/>
    </vehicle>

    <vehicle id="f_5.2" type="car0" depart="18.00" arrival="40.00">
        <route edges="E0 E3"/>
    </vehicle>

    <vehicle id="f_5.3" type="car0" depart="27.00" arrival="49.00">
        <route edges="E0 E3"/>
    </vehicle>

    <vehicle id="f_7.0" type="car0" depart="14.00" arrival="56.00">
        <route edges="-E3 E2"/>
    </vehicle>

    <vehicle id="f_2.0" type="car1" depart="0.00" arrival="60.00">
        <route edges="-E3 E1"/>
    </vehicle>

    <vehicle id="f_0.1" type="car2" depart="36.00" arrival="61.00">
        <route edges="E0 E2"/>
    </vehicle>

    <vehicle id="f_5.4" type="car0" depart="40.00" arrival="63.00">
        <route edges="E0 E3"/>
    </vehicle>

    <vehicle id="f_6.0" type="car1" depart="4.00" arrival="70.00">
        <route edges="-E2 E1"/>
    </vehicle>

    <vehicle id="f_8.1" type="car2" depart="45.00" arrival="72.00">
        <route edges="E0 E1"/>
    </vehicle>

    <vehicle id="f_5.5" type="car0" depart="49.00" arrival="73.00">
        <route edges="E0 E3"/>
    </vehicle>

    <vehicle id="f_5.6" type="car0" depart="54.00" arrival="78.00">
        <route edges="E0 E3"/>
    </vehicle>

    <vehicle id="f_5.7" type="car0" depart="63.00" arrival="86.00">
        <route edges="E0 E3"/>
    </vehicle>

    <vehicle id="f_0.2" type="car2" depart="72.00" arrival="96.00">
        <route edges="E0 E2"/>
    </vehicle>

    <vehicle id="f_5.8" type="car0" depart="76.00" arrival="98.00">
        <route edges="E0 E3"/>
    </vehicle>

    <vehicle id="f_8.2" type="car2" depart="81.00" arrival="105.00">
        <route edges="E0 E1"/>
    </vehicle>

    <vehicle id="f_5.9" type="car0" depart="86.00" arrival="110.00">
        <route edges="E0 E3"/>
    </vehicle>

    <vehicle id="f_5.10" type="car0" depart="91.00" arrival="113.00">
        <route edges="E0 E3"/>
    </vehicle>

    <vehicle id="f_5.11" type="car0" depart="99.00" arrival="120.00">
        <route edges="E0 E3"/>
    </vehicle>

    <vehicle id="f_0.3" type="car2" depart="108.00" arrival="133.00">
        <route edges="E0 E2"/>
    </vehicle>

    <vehicle id="f_5.12" type="car0" depart="113.00" arrival="134.00">
        <route edges="E0 E3"/>
    </vehicle>

    <vehicle id="f_8.3" type="car2" depart="117.00" arrival="140.00">
        <route edges="E0 E1"/>
    </vehicle>

    <vehicle id="f_5.13" type="car0" depart="121.00" arrival="145.00">
        <route edges="E0 E3"/>
    </vehicle>

    <vehicle id="f_5.14" type="car0" depart="126.00" arrival="148.00">
        <route edges="E0 E3"/>
    </vehicle>

    <vehicle id="f_5.15" type="car0" depart="135.00" arrival="155.00">
        <route edges="E0 E3"/>
    </vehicle>

    <vehicle id="f_0.4" type="car2" depart="144.00" arrival="168.00">
        <route edges="E0 E2"/>
    </vehicle>

    <vehicle id="f_5.16" type="car0" depart="148.00" arrival="169.00">
        <route edges="E0 E3"/>
    </vehicle>

    <vehicle id="f_8.4" type="car2" depart="153.00" arrival="177.00">
        <route edges="E0 E1"/>
    </vehicle>

    <vehicle id="f_5.17" type="car0" depart="157.00" arrival="179.00">
        <route edges="E0 E3"/>
    </vehicle>

    <vehicle id="f_5.18" type="car0" depart="162.00" arrival="183.00">
        <route edges="E0 E3"/>
    </vehicle>

    <vehicle id="f_5.19" type="car0" depart="171.00" arrival="194.00">
        <route edges="E0 E3"/>
    </vehicle>

    <vehicle id="f_0.5" type="car2" depart="180.00" arrival="205.00">
        <route edges="E0 E2"/>
    </vehicle>

    <vehicle id="f_5.20" type="car0" depart="185.00" arrival="206.00">
        <route edges="E0 E3"/>
    </vehicle>

    <vehicle id="f_8.5" type="car2" depart="190.00" arrival="213.00">
        <route edges="E0 E1"/>
    </vehicle>

    <vehicle id="f_5.21" type="car0" depart="194.00" arrival="217.00">
        <route edges="E0 E3"/>
    </vehicle>

    <vehicle id="f_5.22" type="car0" depart="199.00" arrival="220.00">
        <route edges="E0 E3"/>
    </vehicle>

    <vehicle id="f_5.23" type="car0" depart="207.00" arrival="227.00">
        <route edges="E0 E3"/>
    </vehicle>

    <vehicle id="f_0.6" type="car2" depart="216.00" arrival="241.00">
        <route edges="E0 E2"/>
    </vehicle>

    <vehicle id="f_5.24" type="car0" depart="221.00" arrival="244.00">
        <route edges="E0 E3"/>
    </vehicle>

    <vehicle id="f_8.6" type="car2" depart="226.00" arrival="250.00">
        <route edges="E0 E1"/>
    </vehicle>

    <vehicle id="f_5.25" type="car0" depart="231.00" arrival="254.00">
        <route edges="E0 E3"/>
    </vehicle>

    <vehicle id="f_5.26" type="car0" depart="236.00" arrival="258.00">
        <route edges="E0 E3"/>
    </vehicle>

    <vehicle id="f_5.27" type="car0" depart="243.00" arrival="264.00">
        <route edges="E0 E3"/>
    </vehicle>

    <vehicle id="f_0.7" type="car2" depart="252.00" arrival="276.00">
        <route edges="E0 E2"/>
    </vehicle>

    <vehicle id="f_5.28" type="car0" depart="256.00" arrival="277.00">
        <route edges="E0 E3"/>
    </vehicle>

    <vehicle id="f_8.7" type="car2" depart="260.00" arrival="283.00">
        <route edges="E0 E1"/>
    </vehicle>

    <vehicle id="f_5.29" type="car0" depart="264.00" arrival="287.00">
        <route edges="E0 E3"/>
    </vehicle>

    <vehicle id="f_5.30" type="car0" depart="270.00" arrival="292.00">
        <route edges="E0 E3"/>
    </vehicle>

    <vehicle id="f_5.31" type="car0" depart="279.00" arrival="300.00">
        <route edges="E0 E3"/>
    </vehicle>

    <vehicle id="f_3.0" type="car0" depart="0.00" arrival="322.00">
        <route edges="-E1 E3"/>
    </vehicle>

    <vehicle id="f_0.8" type="car2" depart="288.00" arrival="330.00">
        <route edges="E0 E2"/>
    </vehicle>

    <vehicle id="f_8.8" type="car2" depart="296.00" arrival="331.00">
        <route edges="E0 E1"/>
    </vehicle>

    <vehicle id="f_10.0" type="car1" depart="18.00" arrival="337.00">
        <route edges="-E2 E3"/>
    </vehicle>

    <vehicle id="f_5.32" type="car0" depart="292.00" arrival="340.00">
        <route edges="E0 E3"/>
    </vehicle>

    <vehicle id="f_5.33" type="car0" depart="301.00" arrival="342.00">
        <route edges="E0 E3"/>
    </vehicle>

    <vehicle id="f_5.34" type="car0" depart="306.00" arrival="345.00">
        <route edges="E0 E3"/>
    </vehicle>

    <vehicle id="f_5.35" type="car0" depart="315.00" arrival="347.00">
        <route edges="E0 E3"/>
    </vehicle>

    <vehicle id="f_0.9" type="car2" depart="324.00" arrival="349.00">
        <route edges="E0 E2"/>
    </vehicle>

    <vehicle id="f_5.36" type="car0" depart="329.00" arrival="351.00">
        <route edges="E0 E3"/>
    </vehicle>

    <vehicle id="f_9.0" type="car0" depart="21.00" arrival="357.00">
        <route edges="-E3 -E0"/>
    </vehicle>

    <vehicle id="f_8.9" type="car2" depart="333.00" arrival="358.00">
        <route edges="E0 E1"/>
    </vehicle>

    <vehicle id="f_5.37" type="car0" depart="337.00" arrival="362.00">
        <route edges="E0 E3"/>
    </vehicle>

    <vehicle id="f_5.38" type="car0" depart="342.00" arrival="365.00">
        <route edges="E0 E3"/>
    </vehicle>

    <vehicle id="f_7.1" type="car0" depart="27.00" arrival="370.00">
        <route edges="-E3 E2"/>
    </vehicle>

    <vehicle id="f_5.39" type="car0" depart="351.00" arrival="372.00">
        <route edges="E0 E3"/>
    </vehicle>

    <vehicle id="f_0.10" type="car2" depart="360.00" arrival="385.00">
        <route edges="E0 E2"/>
    </vehicle>

    <vehicle id="f_5.40" type="car0" depart="364.00" arrival="386.00">
        <route edges="E0 E3"/>
    </vehicle>

    <vehicle id="f_8.10" type="car2" depart="368.00" arrival="392.00">
        <route edges="E0 E1"/>
    </vehicle>

    <vehicle id="f_5.41" type="car0" depart="373.00" arrival="396.00">
        <route edges="E0 E3"/>
    </vehicle>

    <vehicle id="f_5.42" type="car0" depart="378.00" arrival="398.00">
        <route edges="E0 E3"/>
    </vehicle>

    <vehicle id="f_5.43" type="car0" depart="387.00" arrival="409.00">
        <route edges="E0 E3"/>
    </vehicle>

    <vehicle id="f_11.0" type="car0" depart="32.00" arrival="416.00">
        <route edges="-E2 E3"/>
    </vehicle>

    <vehicle id="f_1.1" type="car2" depart="39.00" arrival="418.00">
        <route edges="-E2 -E0"/>
    </vehicle>

    <vehicle id="f_0.11" type="car2" depart="396.00" arrival="422.00">
        <route edges="E0 E2"/>
    </vehicle>

    <vehicle id="f_5.44" type="car0" depart="400.00" arrival="423.00">
        <route edges="E0 E3"/>
    </vehicle>

    <vehicle id="f_8.11" type="car2" depart="405.00" arrival="427.00">
        <route edges="E0 E1"/>
    </vehicle>

    <vehicle id="f_5.45" type="car0" depart="409.00" arrival="432.00">
        <route edges="E0 E3"/>
    </vehicle>

    <vehicle id="f_5.46" type="car0" depart="414.00" arrival="436.00">
        <route edges="E0 E3"/>
    </vehicle>

    <vehicle id="f_5.47" type="car0" depart="423.00" arrival="445.00">
        <route edges="E0 E3"/>
    </vehicle>

    <vehicle id="f_0.12" type="car2" depart="432.00" arrival="457.00">
        <route edges="E0 E2"/>
    </vehicle>

    <vehicle id="f_5.48" type="car0" depart="437.00" arrival="458.00">
        <route edges="E0 E3"/>
    </vehicle>

    <vehicle id="f_8.12" type="car2" depart="442.00" arrival="466.00">
        <route edges="E0 E1"/>
    </vehicle>

    <vehicle id="f_5.49" type="car0" depart="447.00" arrival="471.00">
        <route edges="E0 E3"/>
    </vehicle>

    <vehicle id="f_5.50" type="car0" depart="452.00" arrival="475.00">
        <route edges="E0 E3"/>
    </vehicle>

    <vehicle id="f_5.51" type="car0" depart="459.00" arrival="481.00">
        <route edges="E0 E3"/>
    </vehicle>

    <vehicle id="f_0.13" type="car2" depart="468.00" arrival="492.00">
        <route edges="E0 E2"/>
    </vehicle>

    <vehicle id="f_5.52" type="car0" depart="472.00" arrival="493.00">
        <route edges="E0 E3"/>
    </vehicle>

    <vehicle id="f_8.13" type="car2" depart="477.00" arrival="501.00">
        <route edges="E0 E1"/>
    </vehicle>

    <vehicle id="f_5.53" type="car0" depart="482.00" arrival="504.00">
        <route edges="E0 E3"/>
    </vehicle>

    <vehicle id="f_5.54" type="car0" depart="486.00" arrival="507.00">
        <route edges="E0 E3"/>
    </vehicle>

    <vehicle id="f_5.55" type="car0" depart="495.00" arrival="515.00">
        <route edges="E0 E3"/>
    </vehicle>

    <vehicle id="f_11.1" type="car0" depart="45.00" arrival="523.00">
        <route edges="-E2 E3"/>
    </vehicle>

    <vehicle id="f_1.2" type="car2" depart="51.00" arrival="526.00">
        <route edges="-E2 -E0"/>
    </vehicle>

    <vehicle id="f_0.14" type="car2" depart="504.00" arrival="529.00">
        <route edges="E0 E2"/>
    </vehicle>

    <vehicle id="f_5.56" type="car0" depart="508.00" arrival="531.00">
        <route edges="E0 E3"/>
    </vehicle>

    <vehicle id="f_8.14" type="car2" depart="513.00" arrival="538.00">
        <route edges="E0 E1"/>
    </vehicle>

    <vehicle id="f_5.57" type="car0" depart="517.00" arrival="542.00">
        <route edges="E0 E3"/>
    </vehicle>

    <vehicle id="f_5.58" type="car0" depart="522.00" arrival="546.00">
        <route edges="E0 E3"/>
    </vehicle>

    <vehicle id="f_5.59" type="car0" depart="531.00" arrival="553.00">
        <route edges="E0 E3"/>
    </vehicle>

    <vehicle id="f_0.15" type="car2" depart="540.00" arrival="565.00">
        <route edges="E0 E2"/>
    </vehicle>

    <vehicle id="f_5.60" type="car0" depart="544.00" arrival="566.00">
        <route edges="E0 E3"/>
    </vehicle>

    <vehicle id="f_8.15" type="car2" depart="548.00" arrival="573.00">
        <route edges="E0 E1"/>
    </vehicle>

    <vehicle id="f_5.61" type="car0" depart="552.00" arrival="575.00">
        <route edges="E0 E3"/>
    </vehicle>

    <vehicle id="f_5.62" type="car0" depart="558.00" arrival="579.00">
        <route edges="E0 E3"/>
    </vehicle>

    <vehicle id="f_5.63" type="car0" depart="567.00" arrival="588.00">
        <route edges="E0 E3"/>
    </vehicle>

    <vehicle id="f_0.16" type="car2" depart="576.00" arrival="601.00">
        <route edges="E0 E2"/>
    </vehicle>

    <vehicle id="f_5.64" type="car0" depart="580.00" arrival="601.00">
        <route edges="E0 E3"/>
    </vehicle>

    <vehicle id="f_8.16" type="car2" depart="584.00" arrival="607.00">
        <route edges="E0 E1"/>
    </vehicle>

    <vehicle id="f_5.65" type="car0" depart="588.00" arrival="610.00">
        <route edges="E0 E3"/>
    </vehicle>

    <vehicle id="f_5.66" type="car0" depart="594.00" arrival="615.00">
        <route edges="E0 E3"/>
    </vehicle>

    <vehicle id="f_5.67" type="car0" depart="603.00" arrival="624.00">
        <route edges="E0 E3"/>
    </vehicle>

    <vehicle id="f_11.2" type="car0" depart="56.00" arrival="630.00">
        <route edges="-E2 E3"/>
    </vehicle>

    <vehicle id="f_4.0" type="car2" depart="4.00" arrival="633.00">
        <route edges="-E1 E2"/>
    </vehicle>

    <vehicle id="f_1.3" type="car2" depart="61.00" arrival="634.00">
        <route edges="-E2 -E0"/>
    </vehicle>

    <vehicle id="f_0.17" type="car2" depart="612.00" arrival="637.00">
        <route edges="E0 E2"/>
    </vehicle>

    <vehicle id="f_5.68" type="car0" depart="617.00" arrival="639.00">
        <route edges="E0 E3"/>
    </vehicle>

    <vehicle id="f_8.17" type="car2" depart="622.00" arrival="646.00">
        <route edges="E0 E1"/>
    </vehicle>

    <vehicle id="f_5.69" type="car0" depart="627.00" arrival="650.00">
        <route edges="E0 E3"/>
    </vehicle>

    <vehicle id="f_5.70" type="car0" depart="631.00" arrival="652.00">
        <route edges="E0 E3"/>
    </vehicle>

    <vehicle id="f_5.71" type="car0" depart="639.00" arrival="661.00">
        <route edges="E0 E3"/>
    </vehicle>

    <vehicle id="f_9.1" type="car0" depart="32.00" arrival="669.00">
        <route edges="-E3 -E0"/>
    </vehicle>

    <vehicle id="f_0.18" type="car2" depart="648.00" arrival="673.00">
        <route edges="E0 E2"/>
    </vehicle>

    <vehicle id="f_5.72" type="car0" depart="652.00" arrival="673.00">
        <route edges="E0 E3"/>
    </vehicle>

    <vehicle id="f_8.18" type="car2" depart="656.00" arrival="680.00">
        <route edges="E0 E1"/>
    </vehicle>

    <vehicle id="f_7.2" type="car0" depart="37.00" arrival="681.00">
        <route edges="-E3 E2"/>
    </vehicle>

    <vehicle id="f_5.73" type="car0" depart="660.00" arrival="684.00">
        <route edges="E0 E3"/>
    </vehicle>

    <vehicle id="f_5.74" type="car0" depart="666.00" arrival="687.00">
        <route edges="E0 E3"/>
    </vehicle>

    <vehicle id="f_5.75" type="car0" depart="675.00" arrival="698.00">
        <route edges="E0 E3"/>
    </vehicle>

    <vehicle id="f_0.19" type="car2" depart="684.00" arrival="710.00">
        <route edges="E0 E2"/>
    </vehicle>

    <vehicle id="f_5.76" type="car0" depart="689.00" arrival="711.00">
        <route edges="E0 E3"/>
    </vehicle>

    <vehicle id="f_8.19" type="car2" depart="693.00" arrival="717.00">
        <route edges="E0 E1"/>
    </vehicle>

    <vehicle id="f_5.77" type="car0" depart="698.00" arrival="720.00">
        <route edges="E0 E3"/>
    </vehicle>

    <vehicle id="f_5.78" type="car0" depart="703.00" arrival="724.00">
        <route edges="E0 E3"/>
    </vehicle>

    <vehicle id="f_5.79" type="car0" depart="711.00" arrival="732.00">
        <route edges="E0 E3"/>
    </vehicle>

    <vehicle id="f_11.3" type="car0" depart="66.00" arrival="739.00">
        <route edges="-E2 E3"/>
    </vehicle>

    <vehicle id="f_1.4" type="car2" depart="71.00" arrival="742.00">
        <route edges="-E2 -E0"/>
    </vehicle>

    <vehicle id="f_0.20" type="car2" depart="720.00" arrival="745.00">
        <route edges="E0 E2"/>
    </vehicle>

    <vehicle id="f_5.80" type="car0" depart="724.00" arrival="747.00">
        <route edges="E0 E3"/>
    </vehicle>

    <vehicle id="f_3.1" type="car0" depart="9.00" arrival="752.00">
        <route edges="-E1 E3"/>
    </vehicle>

    <vehicle id="f_5.81" type="car0" depart="733.00" arrival="769.00">
        <route edges="E0 E3"/>
    </vehicle>

    <vehicle id="f_5.82" type="car0" depart="738.00" arrival="771.00">
        <route edges="E0 E3"/>
    </vehicle>

    <vehicle id="f_6.1" type="car1" depart="76.00" arrival="772.00">
        <route edges="-E2 E1"/>
    </vehicle>

    <vehicle id="f_5.83" type="car0" depart="747.00" arrival="773.00">
        <route edges="E0 E3"/>
    </vehicle>

    <vehicle id="f_8.20" type="car2" depart="729.00" arrival="775.00">
        <route edges="E0 E1"/>
    </vehicle>

    <vehicle id="f_0.21" type="car2" depart="756.00" arrival="781.00">
        <route edges="E0 E2"/>
    </vehicle>

    <vehicle id="f_5.84" type="car0" depart="761.00" arrival="782.00">
        <route edges="E0 E3"/>
    </vehicle>

    <vehicle id="f_8.21" type="car2" depart="766.00" arrival="790.00">
        <route edges="E0 E1"/>
    </vehicle>

    <vehicle id="f_5.85" type="car0" depart="770.00" arrival="795.00">
        <route edges="E0 E3"/>
    </vehicle>

    <vehicle id="f_5.86" type="car0" depart="774.00" arrival="797.00">
        <route edges="E0 E3"/>
    </vehicle>

    <vehicle id="f_5.87" type="car0" depart="783.00" arrival="804.00">
        <route edges="E0 E3"/>
    </vehicle>

    <vehicle id="f_0.22" type="car2" depart="792.00" arrival="817.00">
        <route edges="E0 E2"/>
    </vehicle>

    <vehicle id="f_5.88" type="car0" depart="797.00" arrival="818.00">
        <route edges="E0 E3"/>
    </vehicle>

    <vehicle id="f_8.22" type="car2" depart="801.00" arrival="824.00">
        <route edges="E0 E1"/>
    </vehicle>

    <vehicle id="f_5.89" type="car0" depart="805.00" arrival="829.00">
        <route edges="E0 E3"/>
    </vehicle>

    <vehicle id="f_5.90" type="car0" depart="810.00" arrival="832.00">
        <route edges="E0 E3"/>
    </vehicle>

    <vehicle id="f_5.91" type="car0" depart="819.00" arrival="841.00">
        <route edges="E0 E3"/>
    </vehicle>

    <vehicle id="f_0.23" type="car2" depart="828.00" arrival="853.00">
        <route edges="E0 E2"/>
    </vehicle>

    <vehicle id="f_5.92" type="car0" depart="833.00" arrival="854.00">
        <route edges="E0 E3"/>
    </vehicle>

    <vehicle id="f_8.23" type="car2" depart="837.00" arrival="861.00">
        <route edges="E0 E1"/>
    </vehicle>

    <vehicle id="f_5.93" type="car0" depart="842.00" arrival="865.00">
        <route edges="E0 E3"/>
    </vehicle>

    <vehicle id="f_5.94" type="car0" depart="846.00" arrival="868.00">
        <route edges="E0 E3"/>
    </vehicle>

    <vehicle id="f_5.95" type="car0" depart="855.00" arrival="877.00">
        <route edges="E0 E3"/>
    </vehicle>

    <vehicle id="f_0.24" type="car2" depart="864.00" arrival="889.00">
        <route edges="E0 E2"/>
    </vehicle>

    <vehicle id="f_5.96" type="car0" depart="869.00" arrival="891.00">
        <route edges="E0 E3"/>
    </vehicle>

    <vehicle id="f_8.24" type="car2" depart="874.00" arrival="898.00">
        <route edges="E0 E1"/>
    </vehicle>

    <vehicle id="f_5.97" type="car0" depart="879.00" arrival="902.00">
        <route edges="E0 E3"/>
    </vehicle>

    <vehicle id="f_5.98" type="car0" depart="884.00" arrival="906.00">
        <route edges="E0 E3"/>
    </vehicle>

    <vehicle id="f_5.99" type="car0" depart="891.00" arrival="913.00">
        <route edges="E0 E3"/>
    </vehicle>

    <vehicle id="f_0.25" type="car2" depart="900.00" arrival="924.00">
        <route edges="E0 E2"/>
    </vehicle>

    <vehicle id="f_5.100" type="car0" depart="904.00" arrival="926.00">
        <route edges="E0 E3"/>
    </vehicle>

    <vehicle id="f_8.25" type="car2" depart="908.00" arrival="932.00">
        <route edges="E0 E1"/>
    </vehicle>

    <vehicle id="f_5.101" type="car0" depart="913.00" arrival="936.00">
        <route edges="E0 E3"/>
    </vehicle>

    <vehicle id="f_5.102" type="car0" depart="918.00" arrival="940.00">
        <route edges="E0 E3"/>
    </vehicle>

    <vehicle id="f_5.103" type="car0" depart="927.00" arrival="948.00">
        <route edges="E0 E3"/>
    </vehicle>

    <vehicle id="f_0.26" type="car2" depart="936.00" arrival="961.00">
        <route edges="E0 E2"/>
    </vehicle>

    <vehicle id="f_5.104" type="car0" depart="941.00" arrival="966.00">
        <route edges="E0 E3"/>
    </vehicle>

    <vehicle id="f_8.26" type="car2" depart="946.00" arrival="970.00">
        <route edges="E0 E1"/>
    </vehicle>

    <vehicle id="f_5.105" type="car0" depart="951.00" arrival="974.00">
        <route edges="E0 E3"/>
    </vehicle>

    <vehicle id="f_5.106" type="car0" depart="956.00" arrival="978.00">
        <route edges="E0 E3"/>
    </vehicle>

    <vehicle id="f_9.2" type="car0" depart="42.00" arrival="983.00">
        <route edges="-E3 -E0"/>
    </vehicle>

    <vehicle id="f_5.107" type="car0" depart="963.00" arrival="984.00">
        <route edges="E0 E3"/>
    </vehicle>

    <vehicle id="f_0.27" type="car2" depart="972.00" arrival="1013.00">
        <route edges="E0 E2"/>
    </vehicle>

    <vehicle id="f_8.27" type="car2" depart="981.00" arrival="1015.00">
        <route edges="E0 E1"/>
    </vehicle>

    <vehicle id="f_7.3" type="car0" depart="47.00" arrival="1019.00">
        <route edges="-E3 E2"/>
    </vehicle>

    <vehicle id="f_10.1" type="car1" depart="90.00" arrival="1022.00">
        <route edges="-E2 E3"/>
    </vehicle>

    <vehicle id="f_5.108" type="car0" depart="977.00" arrival="1025.00">
        <route edges="E0 E3"/>
    </vehicle>

    <vehicle id="f_5.109" type="car0" depart="985.00" arrival="1027.00">
        <route edges="E0 E3"/>
    </vehicle>

    <vehicle id="f_5.110" type="car0" depart="990.00" arrival="1030.00">
        <route edges="E0 E3"/>
    </vehicle>

    <vehicle id="f_5.111" type="car0" depart="999.00" arrival="1032.00">
        <route edges="E0 E3"/>
    </vehicle>

    <vehicle id="f_0.28" type="car2" depart="1008.00" arrival="1034.00">
        <route edges="E0 E2"/>
    </vehicle>

    <vehicle id="f_5.112" type="car0" depart="1013.00" arrival="1036.00">
        <route edges="E0 E3"/>
    </vehicle>

    <vehicle id="f_8.28" type="car2" depart="1017.00" arrival="1041.00">
        <route edges="E0 E1"/>
    </vehicle>

    <vehicle id="f_5.113" type="car0" depart="1022.00" arrival="1045.00">
        <route edges="E0 E3"/>
    </vehicle>

    <vehicle id="f_5.114" type="car0" depart="1027.00" arrival="1049.00">
        <route edges="E0 E3"/>
    </vehicle>

    <vehicle id="f_3.2" type="car0" depart="18.00" arrival="1052.00">
        <route edges="-E1 E3"/>
    </vehicle>

    <vehicle id="f_5.115" type="car0" depart="1035.00" arrival="1056.00">
        <route edges="E0 E3"/>
    </vehicle>

    <vehicle id="f_0.29" type="car2" depart="1044.00" arrival="1069.00">
        <route edges="E0 E2"/>
    </vehicle>

    <vehicle id="f_5.116" type="car0" depart="1048.00" arrival="1069.00">
        <route edges="E0 E3"/>
    </vehicle>

    <vehicle id="f_8.29" type="car2" depart="1052.00" arrival="1077.00">
        <route edges="E0 E1"/>
    </vehicle>

    <vehicle id="f_5.117" type="car0" depart="1057.00" arrival="1080.00">
        <route edges="E0 E3"/>
    </vehicle>

    <vehicle id="f_5.118" type="car0" depart="1062.00" arrival="1083.00">
        <route edges="E0 E3"/>
    </vehicle>

    <vehicle id="f_5.119" type="car0" depart="1071.00" arrival="1093.00">
        <route edges="E0 E3"/>
    </vehicle>

    <vehicle id="f_11.4" type="car0" depart="105.00" arrival="1100.00">
        <route edges="-E2 E3"/>
    </vehicle>

    <vehicle id="f_1.5" type="car2" depart="112.00" arrival="1102.00">
        <route edges="-E2 -E0"/>
    </vehicle>

    <vehicle id="f_0.30" type="car2" depart="1080.00" arrival="1105.00">
        <route edges="E0 E2"/>
    </vehicle>

    <vehicle id="f_5.120" type="car0" depart="1084.00" arrival="1106.00">
        <route edges="E0 E3"/>
    </vehicle>

    <vehicle id="f_8.30" type="car2" depart="1088.00" arrival="1112.00">
        <route edges="E0 E1"/>
    </vehicle>

    <vehicle id="f_5.121" type="car0" depart="1093.00" arrival="1116.00">
        <route edges="E0 E3"/>
    </vehicle>

    <vehicle id="f_5.122" type="car0" depart="1098.00" arrival="1120.00">
        <route edges="E0 E3"/>
    </vehicle>

    <vehicle id="f_5.123" type="car0" depart="1107.00" arrival="1129.00">
        <route edges="E0 E3"/>
    </vehicle>

    <vehicle id="f_0.31" type="car2" depart="1116.00" arrival="1141.00">
        <route edges="E0 E2"/>
    </vehicle>

    <vehicle id="f_5.124" type="car0" depart="1121.00" arrival="1143.00">
        <route edges="E0 E3"/>
    </vehicle>

    <vehicle id="f_8.31" type="car2" depart="1126.00" arrival="1150.00">
        <route edges="E0 E1"/>
    </vehicle>

    <vehicle id="f_5.125" type="car0" depart="1131.00" arrival="1153.00">
        <route edges="E0 E3"/>
    </vehicle>

    <vehicle id="f_5.126" type="car0" depart="1135.00" arrival="1157.00">
        <route edges="E0 E3"/>
    </vehicle>

    <vehicle id="f_5.127" type="car0" depart="1143.00" arrival="1165.00">
        <route edges="E0 E3"/>
    </vehicle>

    <vehicle id="f_0.32" type="car2" depart="1152.00" arrival="1177.00">
        <route edges="E0 E2"/>
    </vehicle>

    <vehicle id="f_5.128" type="car0" depart="1156.00" arrival="1178.00">
        <route edges="E0 E3"/>
    </vehicle>

    <vehicle id="f_8.32" type="car2" depart="1161.00" arrival="1186.00">
        <route edges="E0 E1"/>
    </vehicle>

    <vehicle id="f_5.129" type="car0" depart="1165.00" arrival="1188.00">
        <route edges="E0 E3"/>
    </vehicle>

    <vehicle id="f_5.130" type="car0" depart="1170.00" arrival="1192.00">
        <route edges="E0 E3"/>
    </vehicle>

    <vehicle id="f_5.131" type="car0" depart="1179.00" arrival="1201.00">
        <route edges="E0 E3"/>
    </vehicle>

    <vehicle id="f_11.5" type="car0" depart="117.00" arrival="1207.00">
        <route edges="-E2 E3"/>
    </vehicle>

    <vehicle id="f_1.6" type="car2" depart="322.00" arrival="1209.00">
        <route edges="-E2 -E0"/>
    </vehicle>

    <vehicle id="f_0.33" type="car2" depart="1188.00" arrival="1213.00">
        <route edges="E0 E2"/>
    </vehicle>

    <vehicle id="f_5.132" type="car0" depart="1193.00" arrival="1217.00">
        <route edges="E0 E3"/>
    </vehicle>

    <vehicle id="f_8.33" type="car2" depart="1197.00" arrival="1221.00">
        <route edges="E0 E1"/>
    </vehicle>

    <vehicle id="f_5.133" type="car0" depart="1201.00" arrival="1225.00">
        <route edges="E0 E3"/>
    </vehicle>

    <vehicle id="f_5.134" type="car0" depart="1206.00" arrival="1229.00">
        <route edges="E0 E3"/>
    </vehicle>

    <vehicle id="f_5.135" type="car0" depart="1215.00" arrival="1237.00">
        <route edges="E0 E3"/>
    </vehicle>

    <vehicle id="f_0.34" type="car2" depart="1224.00" arrival="1249.00">
        <route edges="E0 E2"/>
    </vehicle>

    <vehicle id="f_5.136" type="car0" depart="1229.00" arrival="1251.00">
        <route edges="E0 E3"/>
    </vehicle>

    <vehicle id="f_8.34" type="car2" depart="1234.00" arrival="1257.00">
        <route edges="E0 E1"/>
    </vehicle>

    <vehicle id="f_5.137" type="car0" depart="1238.00" arrival="1261.00">
        <route edges="E0 E3"/>
    </vehicle>

    <vehicle id="f_5.138" type="car0" depart="1243.00" arrival="1265.00">
        <route edges="E0 E3"/>
    </vehicle>

    <vehicle id="f_5.139" type="car0" depart="1251.00" arrival="1273.00">
        <route edges="E0 E3"/>
    </vehicle>

    <vehicle id="f_0.35" type="car2" depart="1260.00" arrival="1285.00">
        <route edges="E0 E2"/>
    </vehicle>

    <vehicle id="f_5.140" type="car0" depart="1265.00" arrival="1287.00">
        <route edges="E0 E3"/>
    </vehicle>

    <vehicle id="f_8.35" type="car2" depart="1269.00" arrival="1293.00">
        <route edges="E0 E1"/>
    </vehicle>

    <vehicle id="f_5.141" type="car0" depart="1274.00" arrival="1297.00">
        <route edges="E0 E3"/>
    </vehicle>

    <vehicle id="f_5.142" type="car0" depart="1279.00" arrival="1301.00">
        <route edges="E0 E3"/>
    </vehicle>

    <vehicle id="f_5.143" type="car0" depart="1287.00" arrival="1307.00">
        <route edges="E0 E3"/>
    </vehicle>

    <vehicle id="f_9.3" type="car0" depart="51.00" arrival="1313.00">
        <route edges="-E3 -E0"/>
    </vehicle>

    <vehicle id="f_11.6" type="car0" depart="427.00" arrival="1314.00">
        <route edges="-E2 E3"/>
    </vehicle>

    <vehicle id="f_1.7" type="car2" depart="437.00" arrival="1317.00">
        <route edges="-E2 -E0"/>
    </vehicle>
