<?xml version="1.0" encoding="UTF-8"?>

<!-- generated on 2025-01-28 21:38:39 by Eclipse SUMO GUI Version 1.21.0
<sumoConfiguration xmlns:xsi="http://www.w3.org/2001/XMLSchema-instance" xsi:noNamespaceSchemaLocation="http://sumo.dlr.de/xsd/sumoConfiguration.xsd">

    <input>
        <net-file value="c:\DATA\ROB\PRACA\praca_In\_KOD\3x3_END\3x3.net.xml"/>
        <route-files value="c:\DATA\ROB\PRACA\praca_In\_KOD\3x3_END\3x3.rou.xml"/>
    </input>

    <output>
        <tripinfo-output value="c:\DATA\ROB\PRACA\praca_In\_KOD\3x3_END\stat/tripinfo.xml"/>
        <vehroute-output value="c:\DATA\ROB\PRACA\praca_In\_KOD\3x3_END\stat/vehroute.xml"/>
    </output>

    <time>
        <begin value="0"/>
        <end value="10000"/>
    </time>

</sumoConfiguration>
-->

<tripinfos xmlns:xsi="http://www.w3.org/2001/XMLSchema-instance" xsi:noNamespaceSchemaLocation="http://sumo.dlr.de/xsd/tripinfo_file.xsd">
    <tripinfo id="t_0" depart="1.00" departLane="E12_0" departPos="5.10" departSpeed="0.00" departDelay="0.00" arrival="60.00" arrivalLane="E11_0" arrivalPos="92.80" arrivalSpeed="13.98" duration="59.00" routeLength="583.56" waitingTime="0.00" waitingCount="0" stopTime="0.00" timeLoss="15.89" rerouteNo="0" devices="vehroute_t_0 tripinfo_t_0 routing_t_0" vType="DEFAULT_VEHTYPE" speedFactor="1.06" vaporized=""/>
    <tripinfo id="t_1" depart="2.00" departLane="E0_0" departPos="5.10" departSpeed="0.00" departDelay="0.00" arrival="63.00" arrivalLane="E3_0" arrivalPos="92.80" arrivalSpeed="14.70" duration="61.00" routeLength="394.90" waitingTime="20.00" waitingCount="1" stopTime="0.00" timeLoss="34.05" rerouteNo="0" devices="vehroute_t_1 tripinfo_t_1 routing_t_1" vType="DEFAULT_VEHTYPE" speedFactor="1.08" vaporized=""/>
    <tripinfo id="flow_random0.0" depart="4.00" departLane="E12_0" departPos="5.10" departSpeed="0.63" departDelay="1.00" arrival="63.00" arrivalLane="E11_0" arrivalPos="92.80" arrivalSpeed="14.17" duration="59.00" routeLength="583.56" waitingTime="0.00" waitingCount="0" stopTime="0.00" timeLoss="15.44" rerouteNo="0" devices="vehroute_flow_random0.0 tripinfo_flow_random0.0 routing_flow_random0.0" vType="DEFAULT_VEHTYPE" speedFactor="1.05" vaporized=""/>
    <tripinfo id="flow_random1.0" depart="8.00" departLane="E0_0" departPos="5.10" departSpeed="6.58" departDelay="0.00" arrival="67.00" arrivalLane="E3_0" arrivalPos="92.80" arrivalSpeed="13.63" duration="59.00" routeLength="394.90" waitingTime="15.00" waitingCount="1" stopTime="0.00" timeLoss="31.48" rerouteNo="0" devices="vehroute_flow_random1.0 tripinfo_flow_random1.0 routing_flow_random1.0" vType="DEFAULT_VEHTYPE" speedFactor="1.05" vaporized=""/>
    <tripinfo id="flow_random1.1" depart="13.00" departLane="E0_0" departPos="5.10" departSpeed="8.24" departDelay="0.00" arrival="70.00" arrivalLane="E3_0" arrivalPos="92.80" arrivalSpeed="11.96" duration="57.00" routeLength="394.90" waitingTime="14.00" waitingCount="1" stopTime="0.00" timeLoss="26.51" rerouteNo="0" devices="vehroute_flow_random1.1 tripinfo_flow_random1.1 routing_flow_random1.1" vType="DEFAULT_VEHTYPE" speedFactor="0.94" vaporized=""/>
    <tripinfo id="flow_random1.2" depart="30.00" departLane="E0_0" departPos="5.10" departSpeed="8.07" departDelay="0.00" arrival="72.00" arrivalLane="E3_0" arrivalPos="92.80" arrivalSpeed="16.31" duration="42.00" routeLength="394.90" waitingTime="0.00" waitingCount="0" stopTime="0.00" timeLoss="17.64" rerouteNo="0" devices="vehroute_flow_random1.2 tripinfo_flow_random1.2 routing_flow_random1.2" vType="DEFAULT_VEHTYPE" speedFactor="1.18" vaporized=""/>
    <tripinfo id="flow_random0.1" depart="7.00" departLane="E12_0" departPos="5.10" departSpeed="0.07" departDelay="2.00" arrival="73.00" arrivalLane="E11_0" arrivalPos="92.80" arrivalSpeed="11.08" duration="66.00" routeLength="583.56" waitingTime="0.00" waitingCount="0" stopTime="0.00" timeLoss="12.65" rerouteNo="0" devices="vehroute_flow_random0.1 tripinfo_flow_random0.1 routing_flow_random0.1" vType="DEFAULT_VEHTYPE" speedFactor="0.86" vaporized=""/>
    <tripinfo id="flow_random1.3" depart="41.00" departLane="E0_0" departPos="5.10" departSpeed="2.93" departDelay="0.00" arrival="76.00" arrivalLane="E3_0" arrivalPos="92.80" arrivalSpeed="16.13" duration="35.00" routeLength="394.90" waitingTime="0.00" waitingCount="0" stopTime="0.00" timeLoss="10.68" rerouteNo="0" devices="vehroute_flow_random1.3 tripinfo_flow_random1.3 routing_flow_random1.3" vType="DEFAULT_VEHTYPE" speedFactor="1.17" vaporized=""/>
    <tripinfo id="flow_random0.2" depart="17.00" departLane="E12_0" departPos="5.10" departSpeed="0.40" departDelay="0.00" arrival="82.00" arrivalLane="E11_0" arrivalPos="92.80" arrivalSpeed="11.36" duration="65.00" routeLength="583.56" waitingTime="0.00" waitingCount="0" stopTime="0.00" timeLoss="13.13" rerouteNo="0" devices="vehroute_flow_random0.2 tripinfo_flow_random0.2 routing_flow_random0.2" vType="DEFAULT_VEHTYPE" speedFactor="0.89" vaporized=""/>
    <tripinfo id="flow_random13.0" depart="0.00" departLane="-E23_0" departPos="5.10" departSpeed="10.00" departDelay="0.00" arrival="83.00" arrivalLane="-E0_0" arrivalPos="92.80" arrivalSpeed="13.66" duration="83.00" routeLength="583.56" waitingTime="21.00" waitingCount="2" stopTime="0.00" timeLoss="37.60" rerouteNo="0" devices="vehroute_flow_random13.0 tripinfo_flow_random13.0 routing_flow_random13.0" vType="DEFAULT_VEHTYPE" speedFactor="1.01" vaporized=""/>
    <tripinfo id="flow_random0.3" depart="22.00" departLane="E12_0" departPos="5.10" departSpeed="1.65" departDelay="0.00" arrival="85.00" arrivalLane="E11_0" arrivalPos="92.80" arrivalSpeed="12.46" duration="63.00" routeLength="583.56" waitingTime="0.00" waitingCount="0" stopTime="0.00" timeLoss="12.98" rerouteNo="0" devices="vehroute_flow_random0.3 tripinfo_flow_random0.3 routing_flow_random0.3" vType="DEFAULT_VEHTYPE" speedFactor="0.92" vaporized=""/>
    <tripinfo id="flow_random13.1" depart="3.00" departLane="-E23_0" departPos="5.10" departSpeed="7.26" departDelay="0.00" arrival="86.00" arrivalLane="-E0_0" arrivalPos="92.80" arrivalSpeed="11.57" duration="83.00" routeLength="583.56" waitingTime="12.00" waitingCount="2" stopTime="0.00" timeLoss="31.25" rerouteNo="0" devices="vehroute_flow_random13.1 tripinfo_flow_random13.1 routing_flow_random13.1" vType="DEFAULT_VEHTYPE" speedFactor="0.89" vaporized=""/>
    <tripinfo id="flow_random10.0" depart="0.00" departLane="E20_0" departPos="5.10" departSpeed="11.61" departDelay="0.00" arrival="102.00" arrivalLane="-E8_0" arrivalPos="92.80" arrivalSpeed="12.75" duration="102.00" routeLength="578.37" waitingTime="40.00" waitingCount="1" stopTime="0.00" timeLoss="53.17" rerouteNo="0" devices="vehroute_flow_random10.0 tripinfo_flow_random10.0 routing_flow_random10.0" vType="DEFAULT_VEHTYPE" speedFactor="0.94" vaporized=""/>
    <tripinfo id="t_10" depart="3.00" departLane="E20_0" departPos="5.10" departSpeed="0.00" departDelay="0.00" arrival="103.00" arrivalLane="-E8_0" arrivalPos="92.80" arrivalSpeed="14.12" duration="100.00" routeLength="578.37" waitingTime="38.00" waitingCount="1" stopTime="0.00" timeLoss="56.20" rerouteNo="0" devices="vehroute_t_10 tripinfo_t_10 routing_t_10" vType="DEFAULT_VEHTYPE" speedFactor="1.03" vaporized=""/>
    <tripinfo id="flow_random10.1" depart="8.00" departLane="E20_0" departPos="5.10" departSpeed="8.83" departDelay="0.00" arrival="106.00" arrivalLane="-E8_0" arrivalPos="92.80" arrivalSpeed="15.22" duration="98.00" routeLength="578.37" waitingTime="36.00" waitingCount="1" stopTime="0.00" timeLoss="56.72" rerouteNo="0" devices="vehroute_flow_random10.1 tripinfo_flow_random10.1 routing_flow_random10.1" vType="DEFAULT_VEHTYPE" speedFactor="1.12" vaporized=""/>
    <tripinfo id="flow_random10.2" depart="22.00" departLane="E20_0" departPos="5.10" departSpeed="1.65" departDelay="0.00" arrival="110.00" arrivalLane="-E8_0" arrivalPos="92.80" arrivalSpeed="13.17" duration="88.00" routeLength="578.37" waitingTime="21.00" waitingCount="1" stopTime="0.00" timeLoss="40.37" rerouteNo="0" devices="vehroute_flow_random10.2 tripinfo_flow_random10.2 routing_flow_random10.2" vType="DEFAULT_VEHTYPE" speedFactor="0.95" vaporized=""/>
    <tripinfo id="flow_random10.3" depart="24.00" departLane="E20_0" departPos="5.10" departSpeed="0.38" departDelay="0.00" arrival="112.00" arrivalLane="-E8_0" arrivalPos="92.80" arrivalSpeed="15.88" duration="88.00" routeLength="578.37" waitingTime="20.00" waitingCount="1" stopTime="0.00" timeLoss="48.26" rerouteNo="0" devices="vehroute_flow_random10.3 tripinfo_flow_random10.3 routing_flow_random10.3" vType="DEFAULT_VEHTYPE" speedFactor="1.15" vaporized=""/>
    <tripinfo id="flow_random10.4" depart="34.00" departLane="E20_0" departPos="5.10" departSpeed="0.37" departDelay="0.00" arrival="116.00" arrivalLane="-E8_0" arrivalPos="92.80" arrivalSpeed="12.23" duration="82.00" routeLength="578.37" waitingTime="12.00" waitingCount="1" stopTime="0.00" timeLoss="34.45" rerouteNo="0" devices="vehroute_flow_random10.4 tripinfo_flow_random10.4 routing_flow_random10.4" vType="DEFAULT_VEHTYPE" speedFactor="0.96" vaporized=""/>
    <tripinfo id="flow_random10.5" depart="49.00" departLane="E20_0" departPos="5.10" departSpeed="6.40" departDelay="0.00" arrival="120.00" arrivalLane="-E8_0" arrivalPos="92.80" arrivalSpeed="12.07" duration="71.00" routeLength="578.37" waitingTime="1.00" waitingCount="1" stopTime="0.00" timeLoss="20.72" rerouteNo="0" devices="vehroute_flow_random10.5 tripinfo_flow_random10.5 routing_flow_random10.5" vType="DEFAULT_VEHTYPE" speedFactor="0.90" vaporized=""/>
    <tripinfo id="flow_random10.6" depart="52.00" departLane="E20_0" departPos="5.10" departSpeed="14.69" departDelay="0.00" arrival="122.00" arrivalLane="-E8_0" arrivalPos="92.80" arrivalSpeed="14.64" duration="70.00" routeLength="578.37" waitingTime="0.00" waitingCount="0" stopTime="0.00" timeLoss="27.47" rerouteNo="0" devices="vehroute_flow_random10.6 tripinfo_flow_random10.6 routing_flow_random10.6" vType="DEFAULT_VEHTYPE" speedFactor="1.08" vaporized=""/>
    <tripinfo id="flow_random13.2" depart="4.00" departLane="-E23_0" departPos="5.10" departSpeed="4.95" departDelay="0.00" arrival="130.00" arrivalLane="-E0_0" arrivalPos="92.80" arrivalSpeed="12.09" duration="126.00" routeLength="583.56" waitingTime="47.00" waitingCount="3" stopTime="0.00" timeLoss="76.94" rerouteNo="0" devices="vehroute_flow_random13.2 tripinfo_flow_random13.2 routing_flow_random13.2" vType="DEFAULT_VEHTYPE" speedFactor="0.94" vaporized=""/>
    <tripinfo id="flow_random13.3" depart="6.00" departLane="-E23_0" departPos="5.10" departSpeed="3.78" departDelay="0.00" arrival="131.00" arrivalLane="-E0_0" arrivalPos="92.80" arrivalSpeed="13.94" duration="125.00" routeLength="583.56" waitingTime="46.00" waitingCount="2" stopTime="0.00" timeLoss="83.20" rerouteNo="0" devices="vehroute_flow_random13.3 tripinfo_flow_random13.3 routing_flow_random13.3" vType="DEFAULT_VEHTYPE" speedFactor="1.09" vaporized=""/>
    <tripinfo id="flow_random13.4" depart="9.00" departLane="-E23_0" departPos="5.10" departSpeed="3.77" departDelay="2.00" arrival="134.00" arrivalLane="-E0_0" arrivalPos="92.80" arrivalSpeed="12.99" duration="125.00" routeLength="583.56" waitingTime="44.00" waitingCount="2" stopTime="0.00" timeLoss="80.79" rerouteNo="0" devices="vehroute_flow_random13.4 tripinfo_flow_random13.4 routing_flow_random13.4" vType="DEFAULT_VEHTYPE" speedFactor="1.03" vaporized=""/>
    <tripinfo id="flow_random1.4" depart="53.00" departLane="E0_0" departPos="5.10" departSpeed="1.63" departDelay="0.00" arrival="135.00" arrivalLane="E3_0" arrivalPos="92.80" arrivalSpeed="15.35" duration="82.00" routeLength="394.90" waitingTime="22.00" waitingCount="1" stopTime="0.00" timeLoss="56.13" rerouteNo="0" devices="vehroute_flow_random1.4 tripinfo_flow_random1.4 routing_flow_random1.4" vType="DEFAULT_VEHTYPE" speedFactor="1.12" vaporized=""/>
    <tripinfo id="flow_random13.5" depart="11.00" departLane="-E23_0" departPos="5.10" departSpeed="4.43" departDelay="3.00" arrival="137.00" arrivalLane="-E0_0" arrivalPos="92.80" arrivalSpeed="12.56" duration="126.00" routeLength="583.56" waitingTime="40.00" waitingCount="2" stopTime="0.00" timeLoss="80.66" rerouteNo="0" devices="vehroute_flow_random13.5 tripinfo_flow_random13.5 routing_flow_random13.5" vType="DEFAULT_VEHTYPE" speedFactor="0.99" vaporized=""/>
    <tripinfo id="flow_random1.5" depart="100.00" departLane="E0_0" departPos="5.10" departSpeed="12.80" departDelay="0.00" arrival="139.00" arrivalLane="E3_0" arrivalPos="92.80" arrivalSpeed="13.98" duration="39.00" routeLength="394.90" waitingTime="0.00" waitingCount="0" stopTime="0.00" timeLoss="10.78" rerouteNo="0" devices="vehroute_flow_random1.5 tripinfo_flow_random1.5 routing_flow_random1.5" vType="DEFAULT_VEHTYPE" speedFactor="1.01" vaporized=""/>
    <tripinfo id="flow_random11.0" depart="26.00" departLane="-E3_0" departPos="5.10" departSpeed="9.23" departDelay="0.00" arrival="149.00" arrivalLane="E15_0" arrivalPos="92.80" arrivalSpeed="12.84" duration="123.00" routeLength="583.53" waitingTime="60.00" waitingCount="1" stopTime="0.00" timeLoss="77.44" rerouteNo="0" devices="vehroute_flow_random11.0 tripinfo_flow_random11.0 routing_flow_random11.0" vType="DEFAULT_VEHTYPE" speedFactor="0.99" vaporized=""/>
    <tripinfo id="flow_random13.6" depart="13.00" departLane="-E23_0" departPos="5.10" departSpeed="4.11" departDelay="4.00" arrival="153.00" arrivalLane="-E0_0" arrivalPos="92.80" arrivalSpeed="12.82" duration="140.00" routeLength="583.56" waitingTime="51.00" waitingCount="3" stopTime="0.00" timeLoss="89.90" rerouteNo="0" devices="vehroute_flow_random13.6 tripinfo_flow_random13.6 routing_flow_random13.6" vType="DEFAULT_VEHTYPE" speedFactor="0.93" vaporized=""/>
    <tripinfo id="flow_random13.7" depart="15.00" departLane="-E23_0" departPos="5.10" departSpeed="3.74" departDelay="5.00" arrival="160.00" arrivalLane="-E0_0" arrivalPos="92.80" arrivalSpeed="11.25" duration="145.00" routeLength="583.56" waitingTime="52.00" waitingCount="4" stopTime="0.00" timeLoss="92.54" rerouteNo="0" devices="vehroute_flow_random13.7 tripinfo_flow_random13.7 routing_flow_random13.7" vType="DEFAULT_VEHTYPE" speedFactor="0.88" vaporized=""/>
    <tripinfo id="flow_random13.8" depart="17.00" departLane="-E23_0" departPos="5.10" departSpeed="2.94" departDelay="6.00" arrival="162.00" arrivalLane="-E0_0" arrivalPos="92.80" arrivalSpeed="12.93" duration="145.00" routeLength="583.56" waitingTime="48.00" waitingCount="3" stopTime="0.00" timeLoss="95.35" rerouteNo="0" devices="vehroute_flow_random13.8 tripinfo_flow_random13.8 routing_flow_random13.8" vType="DEFAULT_VEHTYPE" speedFactor="0.94" vaporized=""/>
    <tripinfo id="flow_random13.9" depart="20.00" departLane="-E23_0" departPos="5.10" departSpeed="2.56" departDelay="6.00" arrival="163.00" arrivalLane="-E0_0" arrivalPos="92.80" arrivalSpeed="15.34" duration="143.00" routeLength="583.56" waitingTime="47.00" waitingCount="3" stopTime="0.00" timeLoss="104.39" rerouteNo="0" devices="vehroute_flow_random13.9 tripinfo_flow_random13.9 routing_flow_random13.9" vType="DEFAULT_VEHTYPE" speedFactor="1.16" vaporized=""/>
    <tripinfo id="flow_random13.10" depart="22.00" departLane="-E23_0" departPos="5.10" departSpeed="4.88" departDelay="7.00" arrival="167.00" arrivalLane="-E0_0" arrivalPos="92.80" arrivalSpeed="12.92" duration="145.00" routeLength="583.56" waitingTime="46.00" waitingCount="2" stopTime="0.00" timeLoss="99.86" rerouteNo="0" devices="vehroute_flow_random13.10 tripinfo_flow_random13.10 routing_flow_random13.10" vType="DEFAULT_VEHTYPE" speedFactor="1.02" vaporized=""/>
    <tripinfo id="flow_random13.11" depart="24.00" departLane="-E23_0" departPos="5.10" departSpeed="3.71" departDelay="8.00" arrival="169.00" arrivalLane="-E0_0" arrivalPos="92.80" arrivalSpeed="13.06" duration="145.00" routeLength="583.56" waitingTime="44.00" waitingCount="2" stopTime="0.00" timeLoss="99.96" rerouteNo="0" devices="vehroute_flow_random13.11 tripinfo_flow_random13.11 routing_flow_random13.11" vType="DEFAULT_VEHTYPE" speedFactor="1.01" vaporized=""/>
    <tripinfo id="flow_random1.6" depart="117.00" departLane="E0_0" departPos="5.10" departSpeed="3.61" departDelay="0.00" arrival="187.00" arrivalLane="E3_0" arrivalPos="92.80" arrivalSpeed="16.14" duration="70.00" routeLength="394.90" waitingTime="32.00" waitingCount="1" stopTime="0.00" timeLoss="45.50" rerouteNo="0" devices="vehroute_flow_random1.6 tripinfo_flow_random1.6 routing_flow_random1.6" vType="DEFAULT_VEHTYPE" speedFactor="1.18" vaporized=""/>
    <tripinfo id="flow_random10.7" depart="87.00" departLane="E20_0" departPos="5.10" departSpeed="4.82" departDelay="0.00" arrival="200.00" arrivalLane="-E8_0" arrivalPos="92.80" arrivalSpeed="13.32" duration="113.00" routeLength="578.37" waitingTime="27.00" waitingCount="2" stopTime="0.00" timeLoss="68.51" rerouteNo="0" devices="vehroute_flow_random10.7 tripinfo_flow_random10.7 routing_flow_random10.7" vType="DEFAULT_VEHTYPE" speedFactor="1.01" vaporized=""/>
    <tripinfo id="flow_random10.8" depart="90.00" departLane="E20_0" departPos="5.10" departSpeed="10.32" departDelay="0.00" arrival="203.00" arrivalLane="-E8_0" arrivalPos="92.80" arrivalSpeed="14.16" duration="113.00" routeLength="578.37" waitingTime="26.00" waitingCount="2" stopTime="0.00" timeLoss="70.75" rerouteNo="0" devices="vehroute_flow_random10.8 tripinfo_flow_random10.8 routing_flow_random10.8" vType="DEFAULT_VEHTYPE" speedFactor="1.09" vaporized=""/>
    <tripinfo id="flow_random10.9" depart="102.00" departLane="E20_0" departPos="5.10" departSpeed="14.32" departDelay="0.00" arrival="205.00" arrivalLane="-E8_0" arrivalPos="92.80" arrivalSpeed="14.30" duration="103.00" routeLength="578.37" waitingTime="18.00" waitingCount="2" stopTime="0.00" timeLoss="59.26" rerouteNo="0" devices="vehroute_flow_random10.9 tripinfo_flow_random10.9 routing_flow_random10.9" vType="DEFAULT_VEHTYPE" speedFactor="1.03" vaporized=""/>
    <tripinfo id="flow_trucks14.0" depart="1.00" departLane="-E15_0" departPos="12.10" departSpeed="0.14" departDelay="0.00" arrival="237.00" arrivalLane="E3_0" arrivalPos="92.80" arrivalSpeed="2.71" duration="236.00" routeLength="571.37" waitingTime="26.00" waitingCount="1" stopTime="0.00" timeLoss="44.81" rerouteNo="0" devices="vehroute_flow_trucks14.0 tripinfo_flow_trucks14.0 routing_flow_trucks14.0" vType="truck" speedFactor="0.92" vaporized=""/>
    <tripinfo id="flow_random1.7" depart="121.00" departLane="E0_0" departPos="5.10" departSpeed="10.32" departDelay="0.00" arrival="240.00" arrivalLane="E3_0" arrivalPos="92.80" arrivalSpeed="8.84" duration="119.00" routeLength="394.90" waitingTime="50.00" waitingCount="2" stopTime="0.00" timeLoss="89.97" rerouteNo="0" devices="vehroute_flow_random1.7 tripinfo_flow_random1.7 routing_flow_random1.7" vType="DEFAULT_VEHTYPE" speedFactor="0.99" vaporized=""/>
    <tripinfo id="flow_random1.8" depart="146.00" departLane="E0_0" departPos="5.10" departSpeed="0.45" departDelay="0.00" arrival="242.00" arrivalLane="E3_0" arrivalPos="92.80" arrivalSpeed="10.35" duration="96.00" routeLength="394.90" waitingTime="25.00" waitingCount="2" stopTime="0.00" timeLoss="68.13" rerouteNo="0" devices="vehroute_flow_random1.8 tripinfo_flow_random1.8 routing_flow_random1.8" vType="DEFAULT_VEHTYPE" speedFactor="1.03" vaporized=""/>
    <tripinfo id="flow_trucks0.0" depart="25.00" departLane="E12_0" departPos="12.10" departSpeed="2.44" departDelay="2.00" arrival="244.00" arrivalLane="E11_0" arrivalPos="92.80" arrivalSpeed="2.98" duration="219.00" routeLength="576.56" waitingTime="10.00" waitingCount="1" stopTime="0.00" timeLoss="26.20" rerouteNo="0" devices="vehroute_flow_trucks0.0 tripinfo_flow_trucks0.0 routing_flow_trucks0.0" vType="truck" speedFactor="0.97" vaporized=""/>
    <tripinfo id="flow_random1.9" depart="171.00" departLane="E0_0" departPos="5.10" departSpeed="2.58" departDelay="0.00" arrival="244.00" arrivalLane="E3_0" arrivalPos="92.80" arrivalSpeed="11.18" duration="73.00" routeLength="394.90" waitingTime="7.00" waitingCount="1" stopTime="0.00" timeLoss="44.61" rerouteNo="0" devices="vehroute_flow_random1.9 tripinfo_flow_random1.9 routing_flow_random1.9" vType="DEFAULT_VEHTYPE" speedFactor="1.01" vaporized=""/>
    <tripinfo id="flow_random11.1" depart="33.00" departLane="-E3_0" departPos="5.10" departSpeed="2.62" departDelay="0.00" arrival="245.00" arrivalLane="E15_0" arrivalPos="92.80" arrivalSpeed="13.99" duration="212.00" routeLength="583.53" waitingTime="141.00" waitingCount="2" stopTime="0.00" timeLoss="167.13" rerouteNo="0" devices="vehroute_flow_random11.1 tripinfo_flow_random11.1 routing_flow_random11.1" vType="DEFAULT_VEHTYPE" speedFactor="1.03" vaporized=""/>
    <tripinfo id="flow_random1.10" depart="178.00" departLane="E0_0" departPos="5.10" departSpeed="5.30" departDelay="0.00" arrival="246.00" arrivalLane="E3_0" arrivalPos="92.80" arrivalSpeed="11.27" duration="68.00" routeLength="394.90" waitingTime="2.00" waitingCount="1" stopTime="0.00" timeLoss="43.33" rerouteNo="0" devices="vehroute_flow_random1.10 tripinfo_flow_random1.10 routing_flow_random1.10" vType="DEFAULT_VEHTYPE" speedFactor="1.16" vaporized=""/>
    <tripinfo id="flow_random0.4" depart="35.00" departLane="E12_0" departPos="5.10" departSpeed="7.88" departDelay="0.00" arrival="247.00" arrivalLane="E11_0" arrivalPos="92.80" arrivalSpeed="8.57" duration="212.00" routeLength="583.56" waitingTime="9.00" waitingCount="1" stopTime="0.00" timeLoss="167.48" rerouteNo="0" devices="vehroute_flow_random0.4 tripinfo_flow_random0.4 routing_flow_random0.4" vType="DEFAULT_VEHTYPE" speedFactor="1.04" vaporized=""/>
    <tripinfo id="flow_random1.11" depart="196.00" departLane="E0_0" departPos="5.10" departSpeed="9.58" departDelay="0.00" arrival="248.00" arrivalLane="E3_0" arrivalPos="92.80" arrivalSpeed="14.90" duration="52.00" routeLength="394.90" waitingTime="0.00" waitingCount="0" stopTime="0.00" timeLoss="26.48" rerouteNo="0" devices="vehroute_flow_random1.11 tripinfo_flow_random1.11 routing_flow_random1.11" vType="DEFAULT_VEHTYPE" speedFactor="1.14" vaporized=""/>
    <tripinfo id="flow_random0.5" depart="37.00" departLane="E12_0" departPos="5.10" departSpeed="2.48" departDelay="0.00" arrival="249.00" arrivalLane="E11_0" arrivalPos="92.80" arrivalSpeed="10.12" duration="212.00" routeLength="583.56" waitingTime="8.00" waitingCount="1" stopTime="0.00" timeLoss="166.01" rerouteNo="0" devices="vehroute_flow_random0.5 tripinfo_flow_random0.5 routing_flow_random0.5" vType="DEFAULT_VEHTYPE" speedFactor="1.00" vaporized=""/>
    <tripinfo id="flow_random0.6" depart="62.00" departLane="E12_0" departPos="5.10" departSpeed="4.87" departDelay="0.00" arrival="251.00" arrivalLane="E11_0" arrivalPos="92.80" arrivalSpeed="11.85" duration="189.00" routeLength="583.56" waitingTime="8.00" waitingCount="1" stopTime="0.00" timeLoss="143.91" rerouteNo="0" devices="vehroute_flow_random0.6 tripinfo_flow_random0.6 routing_flow_random0.6" vType="DEFAULT_VEHTYPE" speedFactor="1.02" vaporized=""/>
    <tripinfo id="flow_random0.7" depart="73.00" departLane="E12_0" departPos="5.10" departSpeed="12.65" departDelay="0.00" arrival="253.00" arrivalLane="E11_0" arrivalPos="92.80" arrivalSpeed="12.62" duration="180.00" routeLength="583.56" waitingTime="7.00" waitingCount="1" stopTime="0.00" timeLoss="135.82" rerouteNo="0" devices="vehroute_flow_random0.7 tripinfo_flow_random0.7 routing_flow_random0.7" vType="DEFAULT_VEHTYPE" speedFactor="1.03" vaporized=""/>
    <tripinfo id="flow_random0.8" depart="75.00" departLane="E12_0" departPos="5.10" departSpeed="5.20" departDelay="0.00" arrival="255.00" arrivalLane="E11_0" arrivalPos="92.80" arrivalSpeed="13.15" duration="180.00" routeLength="583.56" waitingTime="7.00" waitingCount="1" stopTime="0.00" timeLoss="134.44" rerouteNo="0" devices="vehroute_flow_random0.8 tripinfo_flow_random0.8 routing_flow_random0.8" vType="DEFAULT_VEHTYPE" speedFactor="1.01" vaporized=""/>
    <tripinfo id="flow_random0.9" depart="106.00" departLane="E12_0" departPos="5.10" departSpeed="5.95" departDelay="0.00" arrival="257.00" arrivalLane="E11_0" arrivalPos="92.80" arrivalSpeed="13.01" duration="151.00" routeLength="583.56" waitingTime="6.00" waitingCount="1" stopTime="0.00" timeLoss="103.55" rerouteNo="0" devices="vehroute_flow_random0.9 tripinfo_flow_random0.9 routing_flow_random0.9" vType="DEFAULT_VEHTYPE" speedFactor="0.96" vaporized=""/>
    <tripinfo id="flow_random0.10" depart="108.00" departLane="E12_0" departPos="5.10" departSpeed="5.73" departDelay="0.00" arrival="259.00" arrivalLane="E11_0" arrivalPos="92.80" arrivalSpeed="12.20" duration="151.00" routeLength="583.56" waitingTime="6.00" waitingCount="1" stopTime="0.00" timeLoss="101.18" rerouteNo="0" devices="vehroute_flow_random0.10 tripinfo_flow_random0.10 routing_flow_random0.10" vType="DEFAULT_VEHTYPE" speedFactor="0.93" vaporized=""/>
    <tripinfo id="flow_random0.11" depart="122.00" departLane="E12_0" departPos="5.10" departSpeed="1.56" departDelay="0.00" arrival="261.00" arrivalLane="E11_0" arrivalPos="92.80" arrivalSpeed="12.76" duration="139.00" routeLength="583.56" waitingTime="5.00" waitingCount="1" stopTime="0.00" timeLoss="90.09" rerouteNo="0" devices="vehroute_flow_random0.11 tripinfo_flow_random0.11 routing_flow_random0.11" vType="DEFAULT_VEHTYPE" speedFactor="0.94" vaporized=""/>
    <tripinfo id="flow_random0.12" depart="125.00" departLane="E12_0" departPos="5.10" departSpeed="6.63" departDelay="2.00" arrival="262.00" arrivalLane="E11_0" arrivalPos="92.80" arrivalSpeed="14.10" duration="137.00" routeLength="583.56" waitingTime="4.00" waitingCount="1" stopTime="0.00" timeLoss="95.33" rerouteNo="0" devices="vehroute_flow_random0.12 tripinfo_flow_random0.12 routing_flow_random0.12" vType="DEFAULT_VEHTYPE" speedFactor="1.10" vaporized=""/>
    <tripinfo id="flow_random0.13" depart="129.00" departLane="E12_0" departPos="5.10" departSpeed="7.57" departDelay="0.00" arrival="264.00" arrivalLane="E11_0" arrivalPos="92.80" arrivalSpeed="13.41" duration="135.00" routeLength="583.56" waitingTime="3.00" waitingCount="1" stopTime="0.00" timeLoss="90.78" rerouteNo="0" devices="vehroute_flow_random0.13 tripinfo_flow_random0.13 routing_flow_random0.13" vType="DEFAULT_VEHTYPE" speedFactor="1.03" vaporized=""/>
    <tripinfo id="flow_random0.14" depart="130.00" departLane="E12_0" departPos="5.10" departSpeed="5.69" departDelay="0.00" arrival="266.00" arrivalLane="E11_0" arrivalPos="92.80" arrivalSpeed="12.95" duration="136.00" routeLength="583.56" waitingTime="1.00" waitingCount="1" stopTime="0.00" timeLoss="90.58" rerouteNo="0" devices="vehroute_flow_random0.14 tripinfo_flow_random0.14 routing_flow_random0.14" vType="DEFAULT_VEHTYPE" speedFactor="1.02" vaporized=""/>
    <tripinfo id="flow_random0.15" depart="138.00" departLane="E12_0" departPos="5.10" departSpeed="4.84" departDelay="0.00" arrival="267.00" arrivalLane="E11_0" arrivalPos="92.80" arrivalSpeed="15.15" duration="129.00" routeLength="583.56" waitingTime="0.00" waitingCount="0" stopTime="0.00" timeLoss="89.50" rerouteNo="0" devices="vehroute_flow_random0.15 tripinfo_flow_random0.15 routing_flow_random0.15" vType="DEFAULT_VEHTYPE" speedFactor="1.15" vaporized=""/>
    <tripinfo id="flow_random0.16" depart="158.00" departLane="E12_0" departPos="5.10" departSpeed="3.20" departDelay="0.00" arrival="269.00" arrivalLane="E11_0" arrivalPos="92.80" arrivalSpeed="13.98" duration="111.00" routeLength="583.56" waitingTime="0.00" waitingCount="0" stopTime="0.00" timeLoss="68.00" rerouteNo="0" devices="vehroute_flow_random0.16 tripinfo_flow_random0.16 routing_flow_random0.16" vType="DEFAULT_VEHTYPE" speedFactor="1.07" vaporized=""/>
    <tripinfo id="flow_random0.17" depart="160.00" departLane="E12_0" departPos="5.10" departSpeed="3.22" departDelay="0.00" arrival="272.00" arrivalLane="E11_0" arrivalPos="92.80" arrivalSpeed="12.53" duration="112.00" routeLength="583.56" waitingTime="0.00" waitingCount="0" stopTime="0.00" timeLoss="64.62" rerouteNo="0" devices="vehroute_flow_random0.17 tripinfo_flow_random0.17 routing_flow_random0.17" vType="DEFAULT_VEHTYPE" speedFactor="0.96" vaporized=""/>
    <tripinfo id="flow_random1.12" depart="203.00" departLane="E0_0" departPos="5.10" departSpeed="12.86" departDelay="0.00" arrival="272.00" arrivalLane="E3_0" arrivalPos="92.80" arrivalSpeed="12.41" duration="69.00" routeLength="394.90" waitingTime="28.00" waitingCount="1" stopTime="0.00" timeLoss="39.03" rerouteNo="0" devices="vehroute_flow_random1.12 tripinfo_flow_random1.12 routing_flow_random1.12" vType="DEFAULT_VEHTYPE" speedFactor="0.97" vaporized=""/>
    <tripinfo id="flow_random10.10" depart="108.00" departLane="E20_0" departPos="5.10" departSpeed="4.41" departDelay="0.00" arrival="273.00" arrivalLane="-E8_0" arrivalPos="92.80" arrivalSpeed="11.42" duration="165.00" routeLength="578.37" waitingTime="72.00" waitingCount="2" stopTime="0.00" timeLoss="113.00" rerouteNo="0" devices="vehroute_flow_random10.10 tripinfo_flow_random10.10 routing_flow_random10.10" vType="DEFAULT_VEHTYPE" speedFactor="0.87" vaporized=""/>
    <tripinfo id="flow_random0.18" depart="162.00" departLane="E12_0" departPos="5.10" departSpeed="0.70" departDelay="0.00" arrival="274.00" arrivalLane="E11_0" arrivalPos="92.80" arrivalSpeed="14.26" duration="112.00" routeLength="583.56" waitingTime="0.00" waitingCount="0" stopTime="0.00" timeLoss="67.85" rerouteNo="0" devices="vehroute_flow_random0.18 tripinfo_flow_random0.18 routing_flow_random0.18" vType="DEFAULT_VEHTYPE" speedFactor="1.04" vaporized=""/>
    <tripinfo id="flow_random1.13" depart="238.00" departLane="E0_0" departPos="5.10" departSpeed="4.83" departDelay="0.00" arrival="276.00" arrivalLane="E3_0" arrivalPos="92.80" arrivalSpeed="12.54" duration="38.00" routeLength="394.90" waitingTime="0.00" waitingCount="0" stopTime="0.00" timeLoss="6.58" rerouteNo="0" devices="vehroute_flow_random1.13 tripinfo_flow_random1.13 routing_flow_random1.13" vType="DEFAULT_VEHTYPE" speedFactor="0.91" vaporized=""/>