<?xml version="1.0" encoding="UTF-8"?>

<!-- generated on 2025-01-28 21:38:39 by Eclipse SUMO GUI Version 1.21.0
<sumoConfiguration xmlns:xsi="http://www.w3.org/2001/XMLSchema-instance" xsi:noNamespaceSchemaLocation="http://sumo.dlr.de/xsd/sumoConfiguration.xsd">

    <input>
        <net-file value="c:\DATA\ROB\PRACA\praca_In\_KOD\3x3_END\3x3.net.xml"/>
        <route-files value="c:\DATA\ROB\PRACA\praca_In\_KOD\3x3_END\3x3.rou.xml"/>
    </input>

    <output>
        <tripinfo-output value="c:\DATA\ROB\PRACA\praca_In\_KOD\3x3_END\stat/tripinfo.xml"/>
        <vehroute-output value="c:\DATA\ROB\PRACA\praca_In\_KOD\3x3_END\stat/vehroute.xml"/>
    </output>

    <time>
        <begin value="0"/>
        <end value="10000"/>
    </time>

</sumoConfiguration>
-->

<routes xmlns:xsi="http://www.w3.org/2001/XMLSchema-instance" xsi:noNamespaceSchemaLocation="http://sumo.dlr.de/xsd/routes_file.xsd">
    <vehicle id="t_0" depart="1.00" arrival="60.00">
        <route edges="E12 E1 E17 E6 E22 E11"/>
    </vehicle>

    <vehicle id="t_1" depart="2.00" arrival="63.00">
        <route edges="E0 E1 E2 E3"/>
    </vehicle>

    <vehicle id="flow_random0.0" depart="4.00" departLane="0" departSpeed="0.6335" speedFactor="1.0458" arrival="63.00">
        <route edges="E12 E1 E17 E6 E22 E11"/>
    </vehicle>

    <vehicle id="flow_random1.0" depart="8.00" departLane="0" departSpeed="6.5756" speedFactor="1.0471" arrival="67.00">
        <route edges="E0 E1 E2 E3"/>
    </vehicle>

    <vehicle id="flow_random1.1" depart="13.00" departLane="0" departSpeed="8.2376" speedFactor="0.9362" arrival="70.00">
        <route edges="E0 E1 E2 E3"/>
    </vehicle>

    <vehicle id="flow_random1.2" depart="30.00" departLane="0" departSpeed="8.0713" speedFactor="1.1797" arrival="72.00">
        <route edges="E0 E1 E2 E3"/>
    </vehicle>

    <vehicle id="flow_random0.1" depart="7.00" departLane="0" departSpeed="0.0718" speedFactor="0.8569" arrival="73.00">
        <route edges="E12 E1 E17 E6 E22 E11"/>
    </vehicle>

    <vehicle id="flow_random1.3" depart="41.00" departLane="0" departSpeed="2.9332" speedFactor="1.1689" arrival="76.00">
        <route edges="E0 E1 E2 E3"/>
    </vehicle>

    <vehicle id="flow_random0.2" depart="17.00" departLane="0" departSpeed="0.4006" speedFactor="0.8896" arrival="82.00">
        <route edges="E12 E1 E17 E6 E22 E11"/>
    </vehicle>

    <vehicle id="flow_random13.0" depart="0.00" departLane="0" departSpeed="9.9995" speedFactor="1.0104" arrival="83.00">
        <route edges="-E23 -E10 -E18 -E5 -E13 -E0"/>
    </vehicle>

    <vehicle id="flow_random0.3" depart="22.00" departLane="0" departSpeed="1.6482" speedFactor="0.9172" arrival="85.00">
        <route edges="E12 E1 E17 E6 E22 E11"/>
    </vehicle>

    <vehicle id="flow_random13.1" depart="3.00" departLane="0" departSpeed="7.2603" speedFactor="0.8860" arrival="86.00">
        <route edges="-E23 -E10 -E18 -E5 -E13 -E0"/>
    </vehicle>

    <vehicle id="flow_random10.0" depart="0.00" departLane="0" departSpeed="11.6125" speedFactor="0.9383" arrival="102.00">
        <route edges="E20 -E2 E17 -E5 E14 -E8"/>
    </vehicle>

    <vehicle id="t_10" depart="3.00" arrival="103.00">
        <route edges="E20 -E2 E17 -E5 E14 -E8"/>
    </vehicle>

    <vehicle id="flow_random10.1" depart="8.00" departLane="0" departSpeed="8.8322" speedFactor="1.1229" arrival="106.00">
        <route edges="E20 -E2 E17 -E5 E14 -E8"/>
    </vehicle>

    <vehicle id="flow_random10.2" depart="22.00" departLane="0" departSpeed="1.6524" speedFactor="0.9488" arrival="110.00">
        <route edges="E20 -E2 E17 -E5 E14 -E8"/>
    </vehicle>

    <vehicle id="flow_random10.3" depart="24.00" departLane="0" departSpeed="0.3788" speedFactor="1.1544" arrival="112.00">
        <route edges="E20 -E2 E17 -E5 E14 -E8"/>
    </vehicle>

    <vehicle id="flow_random10.4" depart="34.00" departLane="0" departSpeed="0.3701" speedFactor="0.9571" arrival="116.00">
        <route edges="E20 -E2 E17 -E5 E14 -E8"/>
    </vehicle>

    <vehicle id="flow_random10.5" depart="49.00" departLane="0" departSpeed="6.4029" speedFactor="0.8989" arrival="120.00">
        <route edges="E20 -E2 E17 -E5 E14 -E8"/>
    </vehicle>

    <vehicle id="flow_random10.6" depart="52.00" departLane="0" departSpeed="14.6874" speedFactor="1.0825" arrival="122.00">
        <route edges="E20 -E2 E17 -E5 E14 -E8"/>
    </vehicle>

    <vehicle id="flow_random13.2" depart="4.00" departLane="0" departSpeed="4.9546" speedFactor="0.9379" arrival="130.00">
        <route edges="-E23 -E10 -E18 -E5 -E13 -E0"/>
    </vehicle>

    <vehicle id="flow_random13.3" depart="6.00" departLane="0" departSpeed="3.7838" speedFactor="1.0907" arrival="131.00">
        <route edges="-E23 -E10 -E18 -E5 -E13 -E0"/>
    </vehicle>

    <vehicle id="flow_random13.4" depart="9.00" departLane="0" departSpeed="3.7707" speedFactor="1.0263" arrival="134.00">
        <route edges="-E23 -E10 -E18 -E5 -E13 -E0"/>
    </vehicle>

    <vehicle id="flow_random1.4" depart="53.00" departLane="0" departSpeed="1.6281" speedFactor="1.1193" arrival="135.00">
        <route edges="E0 E1 E2 E3"/>
    </vehicle>

    <vehicle id="flow_random13.5" depart="11.00" departLane="0" departSpeed="4.4327" speedFactor="0.9912" arrival="137.00">
        <route edges="-E23 -E10 -E18 -E5 -E13 -E0"/>
    </vehicle>

    <vehicle id="flow_random1.5" depart="100.00" departLane="0" departSpeed="12.8049" speedFactor="1.0140" arrival="139.00">
        <route edges="E0 E1 E2 E3"/>
    </vehicle>

    <vehicle id="flow_random11.0" depart="26.00" departLane="0" departSpeed="9.232" speedFactor="0.9948" arrival="149.00">
        <route edges="-E3 E21 -E6 E18 -E9 E15"/>
    </vehicle>

    <vehicle id="flow_random13.6" depart="13.00" departLane="0" departSpeed="4.1067" speedFactor="0.9268" arrival="153.00">
        <route edges="-E23 -E10 -E18 -E5 -E13 -E0"/>
    </vehicle>

    <vehicle id="flow_random13.7" depart="15.00" departLane="0" departSpeed="3.7389" speedFactor="0.8784" arrival="160.00">
        <route edges="-E23 -E10 -E18 -E5 -E13 -E0"/>
    </vehicle>

    <vehicle id="flow_random13.8" depart="17.00" departLane="0" departSpeed="2.944" speedFactor="0.9414" arrival="162.00">
        <route edges="-E23 -E10 -E18 -E5 -E13 -E0"/>
    </vehicle>

    <vehicle id="flow_random13.9" depart="20.00" departLane="0" departSpeed="2.5596" speedFactor="1.1582" arrival="163.00">
        <route edges="-E23 -E10 -E18 -E5 -E13 -E0"/>
    </vehicle>

    <vehicle id="flow_random13.10" depart="22.00" departLane="0" departSpeed="4.8757" speedFactor="1.0181" arrival="167.00">
        <route edges="-E23 -E10 -E18 -E5 -E13 -E0"/>
    </vehicle>

    <vehicle id="flow_random13.11" depart="24.00" departLane="0" departSpeed="3.7054" speedFactor="1.0102" arrival="169.00">
        <route edges="-E23 -E10 -E18 -E5 -E13 -E0"/>
    </vehicle>

    <vehicle id="flow_random1.6" depart="117.00" departLane="0" departSpeed="3.6072" speedFactor="1.1771" arrival="187.00">
        <route edges="E0 E1 E2 E3"/>
    </vehicle>

    <vehicle id="flow_random10.7" depart="87.00" departLane="0" departSpeed="4.8199" speedFactor="1.0071" arrival="200.00">
        <route edges="E20 -E2 E17 -E5 E14 -E8"/>
    </vehicle>

    <vehicle id="flow_random10.8" depart="90.00" departLane="0" departSpeed="10.3176" speedFactor="1.0910" arrival="203.00">
        <route edges="E20 -E2 E17 -E5 E14 -E8"/>
    </vehicle>

    <vehicle id="flow_random10.9" depart="102.00" departLane="0" departSpeed="14.3225" speedFactor="1.0345" arrival="205.00">
        <route edges="E20 -E2 E17 -E5 E14 -E8"/>
    </vehicle>

    <vehicle id="flow_trucks14.0" type="truck" depart="1.00" departLane="0" departSpeed="0.1364" speedFactor="0.9155" arrival="237.00">
        <route edges="-E15 E9 -E18 E6 -E21 E3"/>
    </vehicle>

    <vehicle id="flow_random1.7" depart="121.00" departLane="0" departSpeed="10.322" speedFactor="0.9914" arrival="240.00">
        <route edges="E0 E1 E2 E3"/>
    </vehicle>

    <vehicle id="flow_random1.8" depart="146.00" departLane="0" departSpeed="0.4517" speedFactor="1.0322" arrival="242.00">
        <route edges="E0 E1 E2 E3"/>
    </vehicle>

    <vehicle id="flow_trucks0.0" type="truck" depart="25.00" departLane="0" departSpeed="2.4351" speedFactor="0.9657" arrival="244.00">
        <route edges="E12 E1 E17 E6 E22 E11"/>
    </vehicle>

    <vehicle id="flow_random1.9" depart="171.00" departLane="0" departSpeed="2.5816" speedFactor="1.0117" arrival="244.00">
        <route edges="E0 E1 E2 E3"/>
    </vehicle>

    <vehicle id="flow_random11.1" depart="33.00" departLane="0" departSpeed="2.6243" speedFactor="1.0304" arrival="245.00">
        <route edges="-E3 E21 -E6 E18 -E9 E15"/>
    </vehicle>

    <vehicle id="flow_random1.10" depart="178.00" departLane="0" departSpeed="5.2969" speedFactor="1.1643" arrival="246.00">
        <route edges="E0 E1 E2 E3"/>
    </vehicle>

    <vehicle id="flow_random0.4" depart="35.00" departLane="0" departSpeed="7.8817" speedFactor="1.0378" arrival="247.00">
        <route edges="E12 E1 E17 E6 E22 E11"/>
    </vehicle>

    <vehicle id="flow_random1.11" depart="196.00" departLane="0" departSpeed="9.5752" speedFactor="1.1408" arrival="248.00">
        <route edges="E0 E1 E2 E3"/>
    </vehicle>

    <vehicle id="flow_random0.5" depart="37.00" departLane="0" departSpeed="2.4795" speedFactor="0.9974" arrival="249.00">
        <route edges="E12 E1 E17 E6 E22 E11"/>
    </vehicle>

    <vehicle id="flow_random0.6" depart="62.00" departLane="0" departSpeed="4.872" speedFactor="1.0230" arrival="251.00">
        <route edges="E12 E1 E17 E6 E22 E11"/>
    </vehicle>

    <vehicle id="flow_random0.7" depart="73.00" departLane="0" departSpeed="12.6491" speedFactor="1.0325" arrival="253.00">
        <route edges="E12 E1 E17 E6 E22 E11"/>
    </vehicle>

    <vehicle id="flow_random0.8" depart="75.00" departLane="0" departSpeed="5.1994" speedFactor="1.0073" arrival="255.00">
        <route edges="E12 E1 E17 E6 E22 E11"/>
    </vehicle>

    <vehicle id="flow_random0.9" depart="106.00" departLane="0" departSpeed="5.9517" speedFactor="0.9596" arrival="257.00">
        <route edges="E12 E1 E17 E6 E22 E11"/>
    </vehicle>

    <vehicle id="flow_random0.10" depart="108.00" departLane="0" departSpeed="5.729" speedFactor="0.9277" arrival="259.00">
        <route edges="E12 E1 E17 E6 E22 E11"/>
    </vehicle>

    <vehicle id="flow_random0.11" depart="122.00" departLane="0" departSpeed="1.5618" speedFactor="0.9415" arrival="261.00">
        <route edges="E12 E1 E17 E6 E22 E11"/>
    </vehicle>

    <vehicle id="flow_random0.12" depart="125.00" departLane="0" departSpeed="6.6326" speedFactor="1.1032" arrival="262.00">
        <route edges="E12 E1 E17 E6 E22 E11"/>
    </vehicle>

    <vehicle id="flow_random0.13" depart="129.00" departLane="0" departSpeed="7.5688" speedFactor="1.0314" arrival="264.00">
        <route edges="E12 E1 E17 E6 E22 E11"/>
    </vehicle>

    <vehicle id="flow_random0.14" depart="130.00" departLane="0" departSpeed="5.6914" speedFactor="1.0234" arrival="266.00">
        <route edges="E12 E1 E17 E6 E22 E11"/>
    </vehicle>

    <vehicle id="flow_random0.15" depart="138.00" departLane="0" departSpeed="4.8415" speedFactor="1.1528" arrival="267.00">
        <route edges="E12 E1 E17 E6 E22 E11"/>
    </vehicle>

    <vehicle id="flow_random0.16" depart="158.00" departLane="0" departSpeed="3.2048" speedFactor="1.0683" arrival="269.00">
        <route edges="E12 E1 E17 E6 E22 E11"/>
    </vehicle>

    <vehicle id="flow_random0.17" depart="160.00" departLane="0" departSpeed="3.2193" speedFactor="0.9597" arrival="272.00">
        <route edges="E12 E1 E17 E6 E22 E11"/>
    </vehicle>

    <vehicle id="flow_random1.12" depart="203.00" departLane="0" departSpeed="12.8602" speedFactor="0.9668" arrival="272.00">
        <route edges="E0 E1 E2 E3"/>
    </vehicle>

    <vehicle id="flow_random10.10" depart="108.00" departLane="0" departSpeed="4.4081" speedFactor="0.8659" arrival="273.00">
        <route edges="E20 -E2 E17 -E5 E14 -E8"/>
    </vehicle>

    <vehicle id="flow_random0.18" depart="162.00" departLane="0" departSpeed="0.6991" speedFactor="1.0374" arrival="274.00">
        <route edges="E12 E1 E17 E6 E22 E11"/>
    </vehicle>

    <vehicle id="flow_random1.13" depart="238.00" departLane="0" departSpeed="4.8345" speedFactor="0.9144" arrival="276.00">
        <route edges="E0 E1 E2 E3"/>
    </vehicle>

    <vehicle id="flow_random0.19" depart="173.00" departLane="0" departSpeed="12.4977" speedFactor="1.0039" arrival="277.00">
        <route edges="E12 E1 E17 E6 E22 E11"/>
    </vehicle>

    <vehicle id="flow_random0.20" depart="177.00" departLane="0" departSpeed="9.1819" speedFactor="0.9535" arrival="279.00">
        <route edges="E12 E1 E17 E6 E22 E11"/>
    </vehicle>

    <vehicle id="flow_random0.21" depart="201.00" departLane="0" departSpeed="0.2021" speedFactor="0.8868" arrival="283.00">
        <route edges="E12 E1 E17 E6 E22 E11"/>
    </vehicle>

    <vehicle id="flow_random0.22" depart="206.00" departLane="0" departSpeed="4.301" speedFactor="0.9630" arrival="284.00">
        <route edges="E12 E1 E17 E6 E22 E11"/>
    </vehicle>

    <vehicle id="flow_random1.14" depart="246.00" departLane="0" departSpeed="12.3077" speedFactor="0.9838" arrival="285.00">
        <route edges="E0 E1 E2 E3"/>
    </vehicle>

    <vehicle id="flow_random0.23" depart="208.00" departLane="0" departSpeed="4.8688" speedFactor="1.0046" arrival="286.00">
        <route edges="E12 E1 E17 E6 E22 E11"/>
    </vehicle>

    <vehicle id="flow_random0.24" depart="210.00" departLane="0" departSpeed="0.1009" speedFactor="0.9270" arrival="290.00">
        <route edges="E12 E1 E17 E6 E22 E11"/>
    </vehicle>

    <vehicle id="flow_random0.25" depart="218.00" departLane="0" departSpeed="2.357" speedFactor="1.1790" arrival="291.00">
        <route edges="E12 E1 E17 E6 E22 E11"/>
    </vehicle>

    <vehicle id="flow_random0.26" depart="221.00" departLane="0" departSpeed="0.7972" speedFactor="0.9097" arrival="294.00">
        <route edges="E12 E1 E17 E6 E22 E11"/>
    </vehicle>

    <vehicle id="flow_random10.11" depart="110.00" departLane="0" departSpeed="1.7496" speedFactor="1.0985" arrival="296.00">
        <route edges="E20 -E2 E17 -E5 E14 -E8"/>
    </vehicle>

    <vehicle id="flow_random0.27" depart="224.00" departLane="0" departSpeed="3.9568" speedFactor="1.1421" arrival="297.00">
        <route edges="E12 E1 E17 E6 E22 E11"/>
    </vehicle>

    <vehicle id="flow_random1.15" depart="257.00" departLane="0" departSpeed="4.451" speedFactor="0.8929" arrival="299.00">
        <route edges="E0 E1 E2 E3"/>
    </vehicle>

    <vehicle id="flow_random0.28" depart="230.00" departLane="0" departSpeed="9.4147" speedFactor="0.9928" arrival="300.00">
        <route edges="E12 E1 E17 E6 E22 E11"/>
    </vehicle>

    <vehicle id="flow_random0.29" depart="231.00" departLane="0" departSpeed="9.4485" speedFactor="1.1269" arrival="301.00">
        <route edges="E12 E1 E17 E6 E22 E11"/>
    </vehicle>

    <vehicle id="flow_random0.30" depart="244.00" departLane="0" departSpeed="1.1465" speedFactor="1.0044" arrival="305.00">
        <route edges="E12 E1 E17 E6 E22 E11"/>
    </vehicle>

    <vehicle id="flow_trucks13.0" type="truck" depart="27.00" departLane="0" departSpeed="2.1467" speedFactor="0.9875" arrival="315.00">
        <route edges="-E23 -E10 -E18 -E5 -E13 -E0"/>
    </vehicle>

    <vehicle id="flow_random10.12" depart="112.00" departLane="0" departSpeed="2.1044" speedFactor="1.0964" arrival="317.00">
        <route edges="E20 -E2 E17 -E5 E14 -E8"/>
    </vehicle>

    <vehicle id="flow_random13.12" depart="30.00" departLane="0" departSpeed="1.0507" speedFactor="0.8257" arrival="318.00">
        <route edges="-E23 -E10 -E18 -E5 -E13 -E0"/>
    </vehicle>

    <vehicle id="flow_random0.31" depart="256.00" departLane="0" departSpeed="6.4804" speedFactor="0.8963" arrival="319.00">
        <route edges="E12 E1 E17 E6 E22 E11"/>
    </vehicle>

    <vehicle id="flow_random13.13" depart="34.00" departLane="0" departSpeed="1.0699" speedFactor="0.8726" arrival="320.00">
        <route edges="-E23 -E10 -E18 -E5 -E13 -E0"/>
    </vehicle>

    <vehicle id="flow_random13.14" depart="38.00" departLane="0" departSpeed="2.0822" speedFactor="1.1318" arrival="322.00">
        <route edges="-E23 -E10 -E18 -E5 -E13 -E0"/>
    </vehicle>

    <vehicle id="flow_random13.15" depart="42.00" departLane="0" departSpeed="0.7669" speedFactor="1.1786" arrival="324.00">
        <route edges="-E23 -E10 -E18 -E5 -E13 -E0"/>
    </vehicle>

    <vehicle id="flow_random10.13" depart="116.00" departLane="0" departSpeed="3.0533" speedFactor="0.9220" arrival="324.00">
        <route edges="E20 -E2 E17 -E5 E14 -E8"/>
    </vehicle>

    <vehicle id="flow_random13.16" depart="46.00" departLane="0" departSpeed="2.0696" speedFactor="1.0052" arrival="326.00">
        <route edges="-E23 -E10 -E18 -E5 -E13 -E0"/>
    </vehicle>

    <vehicle id="flow_random10.14" depart="154.00" departLane="0" departSpeed="10.9393" speedFactor="1.1184" arrival="326.00">
        <route edges="E20 -E2 E17 -E5 E14 -E8"/>
    </vehicle>

    <vehicle id="flow_random13.17" depart="50.00" departLane="0" departSpeed="1.7837" speedFactor="1.1718" arrival="328.00">
        <route edges="-E23 -E10 -E18 -E5 -E13 -E0"/>
    </vehicle>

    <vehicle id="flow_random10.15" depart="155.00" departLane="0" departSpeed="6.7085" speedFactor="1.0083" arrival="329.00">
        <route edges="E20 -E2 E17 -E5 E14 -E8"/>
    </vehicle>

    <vehicle id="flow_random10.16" depart="157.00" departLane="0" departSpeed="4.2074" speedFactor="1.0322" arrival="332.00">
        <route edges="E20 -E2 E17 -E5 E14 -E8"/>
    </vehicle>

    <vehicle id="flow_random0.32" depart="280.00" departLane="0" departSpeed="14.0754" speedFactor="1.0834" arrival="334.00">
        <route edges="E12 E1 E17 E6 E22 E11"/>
    </vehicle>

    <vehicle id="flow_random10.17" depart="172.00" departLane="0" departSpeed="13.1119" speedFactor="1.1195" arrival="335.00">
        <route edges="E20 -E2 E17 -E5 E14 -E8"/>
    </vehicle>

    <vehicle id="flow_random1.16" depart="275.00" departLane="0" departSpeed="3.2609" speedFactor="1.0309" arrival="335.00">
        <route edges="E0 E1 E2 E3"/>
    </vehicle>

    <vehicle id="flow_random10.18" depart="181.00" departLane="0" departSpeed="14.2316" speedFactor="1.1290" arrival="339.00">
        <route edges="E20 -E2 E17 -E5 E14 -E8"/>
    </vehicle>

    <vehicle id="flow_random1.17" depart="292.00" departLane="0" departSpeed="14.1641" speedFactor="1.0297" arrival="346.00">
        <route edges="E0 E1 E2 E3"/>
    </vehicle>

    <vehicle id="flow_random10.19" depart="189.00" departLane="0" departSpeed="8.0497" speedFactor="0.7336" arrival="354.00">
        <route edges="E20 -E2 E17 -E5 E14 -E8"/>
    </vehicle>

    <vehicle id="flow_random10.20" depart="210.00" departLane="0" departSpeed="14.6218" speedFactor="1.0646" arrival="356.00">
        <route edges="E20 -E2 E17 -E5 E14 -E8"/>
    </vehicle>

    <vehicle id="flow_random13.18" depart="53.00" departLane="0" departSpeed="0.3377" speedFactor="1.0197" arrival="358.00">
        <route edges="-E23 -E10 -E18 -E5 -E13 -E0"/>
    </vehicle>

    <vehicle id="flow_random10.21" depart="218.00" departLane="0" departSpeed="0.8517" speedFactor="1.0788" arrival="358.00">
        <route edges="E20 -E2 E17 -E5 E14 -E8"/>
    </vehicle>

    <vehicle id="flow_random10.22" depart="225.00" departLane="0" departSpeed="0.526" speedFactor="0.8786" arrival="360.00">
        <route edges="E20 -E2 E17 -E5 E14 -E8"/>
    </vehicle>

    <vehicle id="flow_random13.19" depart="57.00" departLane="0" departSpeed="1.7354" speedFactor="0.9732" arrival="361.00">
        <route edges="-E23 -E10 -E18 -E5 -E13 -E0"/>
    </vehicle>

    <vehicle id="flow_random1.18" depart="322.00" departLane="0" departSpeed="12.4222" speedFactor="0.9015" arrival="362.00">
        <route edges="E0 E1 E2 E3"/>
    </vehicle>

    <vehicle id="flow_random0.33" depart="306.00" departLane="0" departSpeed="11.056" speedFactor="0.9418" arrival="365.00">
        <route edges="E12 E1 E17 E6 E22 E11"/>
    </vehicle>

    <vehicle id="flow_random1.19" depart="330.00" departLane="0" departSpeed="1.6605" speedFactor="1.0957" arrival="367.00">
        <route edges="E0 E1 E2 E3"/>
    </vehicle>

    <vehicle id="flow_random13.20" depart="61.00" departLane="0" departSpeed="0.3854" speedFactor="1.1023" arrival="369.00">
        <route edges="-E23 -E10 -E18 -E5 -E13 -E0"/>
    </vehicle>

    <vehicle id="flow_random13.21" depart="65.00" departLane="0" departSpeed="0.7382" speedFactor="0.9006" arrival="374.00">
        <route edges="-E23 -E10 -E18 -E5 -E13 -E0"/>
    </vehicle>

    <vehicle id="flow_random11.2" depart="56.00" departLane="0" departSpeed="6.0379" speedFactor="0.8823" arrival="377.00">
        <route edges="-E3 E21 -E6 E18 -E9 E15"/>
    </vehicle>

    <vehicle id="flow_random0.34" depart="316.00" departLane="0" departSpeed="2.591" speedFactor="0.8914" arrival="379.00">
        <route edges="E12 E1 E17 E6 E22 E11"/>
    </vehicle>

    <vehicle id="flow_random0.35" depart="319.00" departLane="0" departSpeed="7.0035" speedFactor="0.9715" arrival="382.00">
        <route edges="E12 E1 E17 E6 E22 E11"/>
    </vehicle>

    <vehicle id="flow_random10.23" depart="229.00" departLane="0" departSpeed="8.0889" speedFactor="1.0777" arrival="388.00">
        <route edges="E20 -E2 E17 -E5 E14 -E8"/>
    </vehicle>

    <vehicle id="flow_random10.24" depart="233.00" departLane="0" departSpeed="3.2208" speedFactor="1.0519" arrival="393.00">
        <route edges="E20 -E2 E17 -E5 E14 -E8"/>
    </vehicle>

    <vehicle id="flow_random10.25" depart="248.00" departLane="0" departSpeed="1.8051" speedFactor="1.0869" arrival="396.00">
        <route edges="E20 -E2 E17 -E5 E14 -E8"/>
    </vehicle>

    <vehicle id="flow_random10.26" depart="262.00" departLane="0" departSpeed="13.5499" speedFactor="1.1420" arrival="398.00">
        <route edges="E20 -E2 E17 -E5 E14 -E8"/>
    </vehicle>

    <vehicle id="flow_random10.27" depart="269.00" departLane="0" departSpeed="3.5887" speedFactor="1.0897" arrival="401.00">
        <route edges="E20 -E2 E17 -E5 E14 -E8"/>
    </vehicle>

    <vehicle id="flow_random1.20" depart="347.00" departLane="0" departSpeed="3.5253" speedFactor="1.0300" arrival="404.00">
        <route edges="E0 E1 E2 E3"/>
    </vehicle>

    <vehicle id="flow_random10.28" depart="281.00" departLane="0" departSpeed="14.3545" speedFactor="1.0645" arrival="405.00">
        <route edges="E20 -E2 E17 -E5 E14 -E8"/>
    </vehicle>

    <vehicle id="flow_random10.29" depart="291.00" departLane="0" departSpeed="12.2029" speedFactor="1.0262" arrival="407.00">
        <route edges="E20 -E2 E17 -E5 E14 -E8"/>
    </vehicle>

    <vehicle id="flow_random1.21" depart="373.00" departLane="0" departSpeed="4.871" speedFactor="1.0350" arrival="408.00">
        <route edges="E0 E1 E2 E3"/>
    </vehicle>

    <vehicle id="flow_random10.30" depart="300.00" departLane="0" departSpeed="7.7748" speedFactor="1.0820" arrival="409.00">
        <route edges="E20 -E2 E17 -E5 E14 -E8"/>
    </vehicle>

    <vehicle id="flow_random1.22" depart="376.00" departLane="0" departSpeed="8.4475" speedFactor="1.0219" arrival="411.00">
        <route edges="E0 E1 E2 E3"/>
    </vehicle>

    <vehicle id="flow_random10.31" depart="312.00" departLane="0" departSpeed="0.5077" speedFactor="0.9160" arrival="414.00">
        <route edges="E20 -E2 E17 -E5 E14 -E8"/>
    </vehicle>

    <vehicle id="flow_random10.32" depart="315.00" departLane="0" departSpeed="6.4176" speedFactor="1.0790" arrival="416.00">
        <route edges="E20 -E2 E17 -E5 E14 -E8"/>
    </vehicle>

    <vehicle id="flow_random10.33" depart="341.00" departLane="0" departSpeed="12.7733" speedFactor="1.0678" arrival="419.00">
        <route edges="E20 -E2 E17 -E5 E14 -E8"/>
    </vehicle>

    <vehicle id="flow_random13.22" depart="70.00" departLane="0" departSpeed="0.2191" speedFactor="1.0919" arrival="420.00">
        <route edges="-E23 -E10 -E18 -E5 -E13 -E0"/>
    </vehicle>

    <vehicle id="flow_random13.23" depart="94.00" departLane="0" departSpeed="1.4725" speedFactor="1.0434" arrival="429.00">
        <route edges="-E23 -E10 -E18 -E5 -E13 -E0"/>
    </vehicle>

    <vehicle id="flow_random0.36" depart="361.00" departLane="0" departSpeed="2.2346" speedFactor="0.8277" arrival="429.00">
        <route edges="E12 E1 E17 E6 E22 E11"/>
    </vehicle>

    <vehicle id="flow_random10.34" depart="342.00" departLane="0" departSpeed="3.945" speedFactor="0.9989" arrival="435.00">
        <route edges="E20 -E2 E17 -E5 E14 -E8"/>
    </vehicle>

    <vehicle id="flow_random10.35" depart="344.00" departLane="0" departSpeed="2.2238" speedFactor="0.8412" arrival="443.00">
        <route edges="E20 -E2 E17 -E5 E14 -E8"/>
    </vehicle>

    <vehicle id="flow_random10.36" depart="354.00" departLane="0" departSpeed="13.6699" speedFactor="1.0647" arrival="445.00">
        <route edges="E20 -E2 E17 -E5 E14 -E8"/>
    </vehicle>

    <vehicle id="flow_random10.37" depart="369.00" departLane="0" departSpeed="9.8183" speedFactor="0.8749" arrival="449.00">
        <route edges="E20 -E2 E17 -E5 E14 -E8"/>
    </vehicle>

    <vehicle id="flow_random10.38" depart="375.00" departLane="0" departSpeed="0.3495" speedFactor="1.0674" arrival="450.00">
        <route edges="E20 -E2 E17 -E5 E14 -E8"/>
    </vehicle>

    <vehicle id="flow_random10.39" depart="378.00" departLane="0" departSpeed="3.8006" speedFactor="1.0034" arrival="453.00">
        <route edges="E20 -E2 E17 -E5 E14 -E8"/>
    </vehicle>

    <vehicle id="flow_random13.24" depart="98.00" departLane="0" departSpeed="4.0765" speedFactor="1.0880" arrival="455.00">
        <route edges="-E23 -E10 -E18 -E5 -E13 -E0"/>
    </vehicle>

    <vehicle id="flow_random10.40" depart="387.00" departLane="0" departSpeed="9.9489" speedFactor="1.0365" arrival="455.00">
        <route edges="E20 -E2 E17 -E5 E14 -E8"/>
    </vehicle>

    <vehicle id="flow_random10.41" depart="396.00" departLane="0" departSpeed="8.8343" speedFactor="1.1018" arrival="457.00">
        <route edges="E20 -E2 E17 -E5 E14 -E8"/>
    </vehicle>

    <vehicle id="flow_random11.3" depart="88.00" departLane="0" departSpeed="6.0846" speedFactor="1.0167" arrival="463.00">
        <route edges="-E3 E21 -E6 E18 -E9 E15"/>
    </vehicle>

    <vehicle id="flow_random13.25" depart="102.00" departLane="0" departSpeed="1.2529" speedFactor="0.9005" arrival="465.00">
        <route edges="-E23 -E10 -E18 -E5 -E13 -E0"/>
    </vehicle>

    <vehicle id="flow_random13.26" depart="106.00" departLane="0" departSpeed="2.5275" speedFactor="0.8769" arrival="468.00">
        <route edges="-E23 -E10 -E18 -E5 -E13 -E0"/>
    </vehicle>

    <vehicle id="flow_random11.4" depart="103.00" departLane="0" departSpeed="11.5959" speedFactor="1.0648" arrival="470.00">
        <route edges="-E3 E21 -E6 E18 -E9 E15"/>
    </vehicle>

    <vehicle id="flow_random13.27" depart="109.00" departLane="0" departSpeed="0.1472" speedFactor="0.8549" arrival="471.00">
        <route edges="-E23 -E10 -E18 -E5 -E13 -E0"/>
    </vehicle>

    <vehicle id="flow_random13.28" depart="114.00" departLane="0" departSpeed="1.8806" speedFactor="1.0168" arrival="476.00">
        <route edges="-E23 -E10 -E18 -E5 -E13 -E0"/>
    </vehicle>

    <vehicle id="flow_random13.29" depart="118.00" departLane="0" departSpeed="2.691" speedFactor="1.0958" arrival="477.00">
        <route edges="-E23 -E10 -E18 -E5 -E13 -E0"/>
    </vehicle>

    <vehicle id="flow_random13.30" depart="121.00" departLane="0" departSpeed="0.4605" speedFactor="1.0032" arrival="481.00">
        <route edges="-E23 -E10 -E18 -E5 -E13 -E0"/>
    </vehicle>

    <vehicle id="flow_random13.31" depart="124.00" departLane="0" departSpeed="0.0909" speedFactor="0.9960" arrival="484.00">
        <route edges="-E23 -E10 -E18 -E5 -E13 -E0"/>
    </vehicle>

    <vehicle id="flow_random13.32" depart="129.00" departLane="0" departSpeed="0.276" speedFactor="1.1425" arrival="486.00">
        <route edges="-E23 -E10 -E18 -E5 -E13 -E0"/>
    </vehicle>

    <vehicle id="flow_random13.33" depart="133.00" departLane="0" departSpeed="1.5957" speedFactor="1.0236" arrival="489.00">
        <route edges="-E23 -E10 -E18 -E5 -E13 -E0"/>
    </vehicle>

    <vehicle id="flow_random13.34" depart="137.00" departLane="0" departSpeed="2.1872" speedFactor="0.9695" arrival="493.00">
        <route edges="-E23 -E10 -E18 -E5 -E13 -E0"/>
    </vehicle>

    <vehicle id="flow_random1.23" depart="398.00" departLane="0" departSpeed="1.0682" speedFactor="1.0705" arrival="513.00">
        <route edges="E0 E1 E2 E3"/>
    </vehicle>

    <vehicle id="flow_random13.35" depart="141.00" departLane="0" departSpeed="0.1506" speedFactor="1.0158" arrival="535.00">
        <route edges="-E23 -E10 -E18 -E5 -E13 -E0"/>
    </vehicle>

    <vehicle id="flow_trucks14.1" type="truck" depart="40.00" departLane="0" departSpeed="1.7014" speedFactor="0.9252" arrival="546.00">
        <route edges="-E15 E9 -E18 E6 -E21 E3"/>
    </vehicle>

    <vehicle id="flow_random10.42" depart="413.00" departLane="0" departSpeed="13.9865" speedFactor="1.0644" arrival="548.00">
        <route edges="E20 -E2 E17 -E5 E14 -E8"/>
    </vehicle>

    <vehicle id="flow_random1.24" depart="403.00" departLane="0" departSpeed="1.9009" speedFactor="1.0671" arrival="549.00">
        <route edges="E0 E1 E2 E3"/>
    </vehicle>

    <vehicle id="flow_random10.43" depart="420.00" departLane="0" departSpeed="11.9907" speedFactor="1.2424" arrival="550.00">
        <route edges="E20 -E2 E17 -E5 E14 -E8"/>
    </vehicle>

    <vehicle id="flow_random1.25" depart="428.00" departLane="0" departSpeed="0.4485" speedFactor="0.9948" arrival="551.00">
        <route edges="E0 E1 E2 E3"/>
    </vehicle>
