<?xml version="1.0" encoding="UTF-8"?>

<!-- generated on 2024-08-12 22:29:16 by Eclipse SUMO GUI Version 1.18.0
<configuration xmlns:xsi="http://www.w3.org/2001/XMLSchema-instance" xsi:noNamespaceSchemaLocation="http://sumo.dlr.de/xsd/sumoConfiguration.xsd">

    <input>
        <net-file value="C:\DATA\ROB\7SEM\test\praca_In\siatka_3x3\3x3_swiatla.net.xml"/>
        <route-files value="C:\DATA\ROB\7SEM\test\praca_In\siatka_3x3\3x3.rou.xml"/>
    </input>

    <output>
        <tripinfo-output value="C:\DATA\ROB\7SEM\test\praca_In\siatka_3x3\tripinfo_swiatla.xml"/>
    </output>

</configuration>
-->

<tripinfos xmlns:xsi="http://www.w3.org/2001/XMLSchema-instance" xsi:noNamespaceSchemaLocation="http://sumo.dlr.de/xsd/tripinfo_file.xsd">
    <tripinfo id="t_16" depart="0.00" departLane="E16_0" departPos="5.10" departSpeed="0.00" departDelay="0.00" arrival="35.00" arrivalLane="E19_0" arrivalPos="92.80" arrivalSpeed="11.94" duration="35.00" routeLength="394.90" waitingTime="0.00" waitingCount="0" stopTime="0.00" timeLoss="4.43" rerouteNo="0" devices="tripinfo_t_16 routing_t_16" vType="DEFAULT_VEHTYPE" speedFactor="0.94" vaporized=""/>
    <tripinfo id="t_17" depart="0.00" departLane="-E19_0" departPos="5.10" departSpeed="0.00" departDelay="0.00" arrival="38.00" arrivalLane="-E16_0" arrivalPos="92.80" arrivalSpeed="10.68" duration="38.00" routeLength="394.90" waitingTime="0.00" waitingCount="0" stopTime="0.00" timeLoss="4.06" rerouteNo="0" devices="tripinfo_t_17 routing_t_17" vType="DEFAULT_VEHTYPE" speedFactor="0.86" vaporized=""/>
    <tripinfo id="t_6" depart="9.00" departLane="E12_0" departPos="5.10" departSpeed="0.00" departDelay="9.00" arrival="43.00" arrivalLane="E15_0" arrivalPos="92.80" arrivalSpeed="13.67" duration="34.00" routeLength="394.90" waitingTime="0.00" waitingCount="0" stopTime="0.00" timeLoss="4.66" rerouteNo="0" devices="tripinfo_t_6 routing_t_6" vType="DEFAULT_VEHTYPE" speedFactor="0.99" vaporized=""/>
    <tripinfo id="t_3" depart="6.00" departLane="E12_0" departPos="5.10" departSpeed="0.00" departDelay="6.00" arrival="60.00" arrivalLane="E19_0" arrivalPos="92.80" arrivalSpeed="13.64" duration="54.00" routeLength="489.33" waitingTime="3.00" waitingCount="1" stopTime="0.00" timeLoss="17.74" rerouteNo="0" devices="tripinfo_t_3 routing_t_3" vType="DEFAULT_VEHTYPE" speedFactor="1.03" vaporized=""/>
    <tripinfo id="t_4" depart="0.00" departLane="E4_0" departPos="5.10" departSpeed="0.00" departDelay="0.00" arrival="70.00" arrivalLane="E7_0" arrivalPos="92.80" arrivalSpeed="14.42" duration="70.00" routeLength="394.90" waitingTime="32.00" waitingCount="1" stopTime="0.00" timeLoss="42.08" rerouteNo="0" devices="tripinfo_t_4 routing_t_4" vType="DEFAULT_VEHTYPE" speedFactor="1.05" vaporized=""/>
    <tripinfo id="t_5" depart="3.00" departLane="E8_0" departPos="5.10" departSpeed="0.00" departDelay="3.00" arrival="70.00" arrivalLane="E11_0" arrivalPos="92.80" arrivalSpeed="15.36" duration="67.00" routeLength="394.90" waitingTime="31.00" waitingCount="1" stopTime="0.00" timeLoss="41.25" rerouteNo="0" devices="tripinfo_t_5 routing_t_5" vType="DEFAULT_VEHTYPE" speedFactor="1.12" vaporized=""/>
    <tripinfo id="t_1" depart="0.00" departLane="E0_0" departPos="5.10" departSpeed="0.00" departDelay="0.00" arrival="72.00" arrivalLane="E3_0" arrivalPos="92.80" arrivalSpeed="11.78" duration="72.00" routeLength="394.90" waitingTime="32.00" waitingCount="1" stopTime="0.00" timeLoss="41.26" rerouteNo="0" devices="tripinfo_t_1 routing_t_1" vType="DEFAULT_VEHTYPE" speedFactor="0.94" vaporized=""/>
    <tripinfo id="t_7" depart="3.00" departLane="-E3_0" departPos="5.10" departSpeed="0.00" departDelay="3.00" arrival="74.00" arrivalLane="-E0_0" arrivalPos="92.80" arrivalSpeed="12.36" duration="71.00" routeLength="394.90" waitingTime="31.00" waitingCount="1" stopTime="0.00" timeLoss="39.52" rerouteNo="0" devices="tripinfo_t_7 routing_t_7" vType="DEFAULT_VEHTYPE" speedFactor="0.93" vaporized=""/>
    <tripinfo id="t_8" depart="0.00" departLane="-E7_0" departPos="5.10" departSpeed="0.00" departDelay="0.00" arrival="74.00" arrivalLane="-E4_0" arrivalPos="92.80" arrivalSpeed="11.73" duration="74.00" routeLength="394.90" waitingTime="31.00" waitingCount="1" stopTime="0.00" timeLoss="40.98" rerouteNo="0" devices="tripinfo_t_8 routing_t_8" vType="DEFAULT_VEHTYPE" speedFactor="0.88" vaporized=""/>
    <tripinfo id="t_9" depart="3.00" departLane="-E11_0" departPos="5.10" departSpeed="0.00" departDelay="3.00" arrival="74.00" arrivalLane="-E8_0" arrivalPos="92.80" arrivalSpeed="11.79" duration="71.00" routeLength="394.90" waitingTime="29.00" waitingCount="1" stopTime="0.00" timeLoss="40.12" rerouteNo="0" devices="tripinfo_t_9 routing_t_9" vType="DEFAULT_VEHTYPE" speedFactor="0.94" vaporized=""/>
    <tripinfo id="t_2" depart="3.00" departLane="E12_0" departPos="5.10" departSpeed="0.00" departDelay="3.00" arrival="145.00" arrivalLane="E23_0" arrivalPos="92.80" arrivalSpeed="14.21" duration="142.00" routeLength="583.76" waitingTime="76.00" waitingCount="3" stopTime="0.00" timeLoss="100.26" rerouteNo="0" devices="tripinfo_t_2 routing_t_2" vType="DEFAULT_VEHTYPE" speedFactor="1.09" vaporized=""/>
    <tripinfo id="t_0" depart="0.00" departLane="E12_0" departPos="5.10" departSpeed="0.00" departDelay="0.00" arrival="190.00" arrivalLane="E11_0" arrivalPos="92.80" arrivalSpeed="13.47" duration="190.00" routeLength="583.56" waitingTime="117.00" waitingCount="4" stopTime="0.00" timeLoss="147.14" rerouteNo="0" devices="tripinfo_t_0 routing_t_0" vType="DEFAULT_VEHTYPE" speedFactor="1.06" vaporized=""/>
    <tripinfo id="t_10" depart="0.00" departLane="E20_0" departPos="5.10" departSpeed="0.00" departDelay="0.00" arrival="190.00" arrivalLane="-E8_0" arrivalPos="92.80" arrivalSpeed="12.75" duration="190.00" routeLength="578.39" waitingTime="116.00" waitingCount="5" stopTime="0.00" timeLoss="145.19" rerouteNo="0" devices="tripinfo_t_10 routing_t_10" vType="DEFAULT_VEHTYPE" speedFactor="1.01" vaporized=""/>
    <tripinfo id="t_14" depart="0.00" departLane="-E15_0" departPos="5.10" departSpeed="0.00" departDelay="0.00" arrival="190.00" arrivalLane="E3_0" arrivalPos="92.80" arrivalSpeed="13.44" duration="190.00" routeLength="578.39" waitingTime="110.00" waitingCount="6" stopTime="0.00" timeLoss="145.58" rerouteNo="0" devices="tripinfo_t_14 routing_t_14" vType="DEFAULT_VEHTYPE" speedFactor="1.05" vaporized=""/>
    <tripinfo id="t_13" depart="0.00" departLane="-E23_0" departPos="5.10" departSpeed="0.00" departDelay="0.00" arrival="193.00" arrivalLane="-E0_0" arrivalPos="92.80" arrivalSpeed="11.01" duration="193.00" routeLength="583.56" waitingTime="110.00" waitingCount="5" stopTime="0.00" timeLoss="137.58" rerouteNo="0" devices="tripinfo_t_13 routing_t_13" vType="DEFAULT_VEHTYPE" speedFactor="0.83" vaporized=""/>
    <tripinfo id="t_11" depart="0.00" departLane="-E3_0" departPos="5.10" departSpeed="0.00" departDelay="0.00" arrival="235.00" arrivalLane="E15_0" arrivalPos="92.80" arrivalSpeed="14.29" duration="235.00" routeLength="583.56" waitingTime="162.00" waitingCount="5" stopTime="0.00" timeLoss="192.50" rerouteNo="0" devices="tripinfo_t_11 routing_t_11" vType="DEFAULT_VEHTYPE" speedFactor="1.08" vaporized=""/>
    <tripinfo id="t_12" depart="0.00" departLane="-E11_0" departPos="5.10" departSpeed="0.00" departDelay="0.00" arrival="235.00" arrivalLane="-E12_0" arrivalPos="92.80" arrivalSpeed="14.02" duration="235.00" routeLength="578.39" waitingTime="156.00" waitingCount="6" stopTime="0.00" timeLoss="191.32" rerouteNo="0" devices="tripinfo_t_12 routing_t_12" vType="DEFAULT_VEHTYPE" speedFactor="1.03" vaporized=""/>
    <tripinfo id="t_15" depart="0.00" departLane="E8_0" departPos="5.10" departSpeed="0.00" departDelay="0.00" arrival="236.00" arrivalLane="-E20_0" arrivalPos="92.80" arrivalSpeed="12.12" duration="236.00" routeLength="583.56" waitingTime="158.00" waitingCount="5" stopTime="0.00" timeLoss="184.49" rerouteNo="0" devices="tripinfo_t_15 routing_t_15" vType="DEFAULT_VEHTYPE" speedFactor="0.89" vaporized=""/>
</tripinfos>
