<?xml version="1.0" encoding="UTF-8"?>

<!-- generated on 2024-07-24 21:51:57 by Eclipse SUMO sumo Version 1.18.0
<configuration xmlns:xsi="http://www.w3.org/2001/XMLSchema-instance" xsi:noNamespaceSchemaLocation="http://sumo.dlr.de/xsd/sumoConfiguration.xsd">

    <input>
        <net-file value="c:\DATA\ROB\7SEM\GIT\test\skrzyzowanieX\01_skrzyzowanieX.net.xml"/>
        <route-files value="c:\DATA\ROB\7SEM\GIT\test\skrzyzowanieX\01_skrzyzowanieX.rou.xml"/>
    </input>

    <output>
        <tripinfo-output value="c:\DATA\ROB\7SEM\GIT\test\python\out_tripInfo.xml"/>
    </output>

</configuration>
-->

<tripinfos xmlns:xsi="http://www.w3.org/2001/XMLSchema-instance" xsi:noNamespaceSchemaLocation="http://sumo.dlr.de/xsd/tripinfo_file.xsd">
    <tripinfo id="f_0.0" depart="0.00" departLane="E0_0" departPos="5.10" departSpeed="0.00" departDelay="0.00" arrival="25.00" arrivalLane="E2_0" arrivalPos="102.50" arrivalSpeed="9.95" duration="25.00" routeLength="177.16" waitingTime="0.00" waitingCount="0" stopTime="0.00" timeLoss="6.45" rerouteNo="0" devices="tripinfo_f_0.0 routing_f_0.0" vType="car2" speedFactor="1.06" vaporized=""/>
    <tripinfo id="f_1.0" depart="0.00" departLane="-E2_0" departPos="5.10" departSpeed="0.00" departDelay="0.00" arrival="25.00" arrivalLane="-E0_0" arrivalPos="65.34" arrivalSpeed="9.55" duration="25.00" routeLength="177.16" waitingTime="0.00" waitingCount="0" stopTime="0.00" timeLoss="6.38" rerouteNo="0" devices="tripinfo_f_1.0 routing_f_1.0" vType="car2" speedFactor="0.94" vaporized=""/>
    <tripinfo id="f_5.0" depart="4.00" departLane="E0_0" departPos="5.10" departSpeed="0.00" departDelay="4.00" arrival="28.00" arrivalLane="E3_0" arrivalPos="61.11" arrivalSpeed="10.57" duration="24.00" routeLength="130.38" waitingTime="0.00" waitingCount="0" stopTime="0.00" timeLoss="10.88" rerouteNo="0" devices="tripinfo_f_5.0 routing_f_5.0" vType="car0" speedFactor="0.83" vaporized=""/>
    <tripinfo id="f_8.0" depart="8.00" departLane="E0_0" departPos="5.10" departSpeed="0.00" departDelay="8.00" arrival="33.00" arrivalLane="E1_0" arrivalPos="57.23" arrivalSpeed="9.93" duration="25.00" routeLength="131.68" waitingTime="0.00" waitingCount="0" stopTime="0.00" timeLoss="10.70" rerouteNo="0" devices="tripinfo_f_8.0 routing_f_8.0" vType="car2" speedFactor="0.94" vaporized=""/>
    <tripinfo id="f_5.1" depart="12.00" departLane="E0_0" departPos="5.10" departSpeed="0.00" departDelay="3.00" arrival="36.00" arrivalLane="E3_0" arrivalPos="61.11" arrivalSpeed="10.81" duration="24.00" routeLength="130.38" waitingTime="0.00" waitingCount="0" stopTime="0.00" timeLoss="13.74" rerouteNo="0" devices="tripinfo_f_5.1 routing_f_5.1" vType="car0" speedFactor="0.99" vaporized=""/>
    <tripinfo id="f_5.2" depart="18.00" departLane="E0_0" departPos="5.10" departSpeed="0.00" departDelay="0.00" arrival="40.00" arrivalLane="E3_0" arrivalPos="61.11" arrivalSpeed="11.66" duration="22.00" routeLength="130.38" waitingTime="0.00" waitingCount="0" stopTime="0.00" timeLoss="11.15" rerouteNo="0" devices="tripinfo_f_5.2 routing_f_5.2" vType="car0" speedFactor="1.02" vaporized=""/>
    <tripinfo id="f_5.3" depart="27.00" departLane="E0_0" departPos="5.10" departSpeed="0.00" departDelay="0.00" arrival="49.00" arrivalLane="E3_0" arrivalPos="61.11" arrivalSpeed="10.65" duration="22.00" routeLength="130.38" waitingTime="0.00" waitingCount="0" stopTime="0.00" timeLoss="10.57" rerouteNo="0" devices="tripinfo_f_5.3 routing_f_5.3" vType="car0" speedFactor="0.92" vaporized=""/>
    <tripinfo id="f_7.0" depart="14.00" departLane="-E3_0" departPos="5.10" departSpeed="0.00" departDelay="14.00" arrival="56.00" arrivalLane="E2_0" arrivalPos="102.50" arrivalSpeed="12.17" duration="42.00" routeLength="167.58" waitingTime="0.00" waitingCount="0" stopTime="0.00" timeLoss="26.66" rerouteNo="0" devices="tripinfo_f_7.0 routing_f_7.0" vType="car0" speedFactor="0.89" vaporized=""/>
    <tripinfo id="f_2.0" depart="0.00" departLane="-E3_0" departPos="5.10" departSpeed="0.00" departDelay="0.00" arrival="60.00" arrivalLane="E1_0" arrivalPos="57.23" arrivalSpeed="4.09" duration="60.00" routeLength="127.67" waitingTime="0.00" waitingCount="0" stopTime="0.00" timeLoss="50.75" rerouteNo="0" devices="tripinfo_f_2.0 routing_f_2.0" vType="car1" speedFactor="1.01" vaporized=""/>
    <tripinfo id="f_0.1" depart="36.00" departLane="E0_0" departPos="5.10" departSpeed="0.00" departDelay="0.00" arrival="61.00" arrivalLane="E2_0" arrivalPos="102.50" arrivalSpeed="9.85" duration="25.00" routeLength="177.16" waitingTime="0.00" waitingCount="0" stopTime="0.00" timeLoss="7.26" rerouteNo="0" devices="tripinfo_f_0.1 routing_f_0.1" vType="car2" speedFactor="1.18" vaporized=""/>
    <tripinfo id="f_5.4" depart="40.00" departLane="E0_0" departPos="5.10" departSpeed="0.00" departDelay="4.00" arrival="63.00" arrivalLane="E3_0" arrivalPos="61.11" arrivalSpeed="11.38" duration="23.00" routeLength="130.38" waitingTime="0.00" waitingCount="0" stopTime="0.00" timeLoss="12.04" rerouteNo="0" devices="tripinfo_f_5.4 routing_f_5.4" vType="car0" speedFactor="1.02" vaporized=""/>
    <tripinfo id="f_6.0" depart="4.00" departLane="-E2_0" departPos="5.10" departSpeed="0.00" departDelay="4.00" arrival="70.00" arrivalLane="E1_0" arrivalPos="57.23" arrivalSpeed="4.91" duration="66.00" routeLength="163.66" waitingTime="0.00" waitingCount="0" stopTime="0.00" timeLoss="53.90" rerouteNo="0" devices="tripinfo_f_6.0 routing_f_6.0" vType="car1" speedFactor="1.05" vaporized=""/>
    <tripinfo id="f_8.1" depart="45.00" departLane="E0_0" departPos="5.10" departSpeed="0.00" departDelay="9.00" arrival="72.00" arrivalLane="E1_0" arrivalPos="57.23" arrivalSpeed="7.16" duration="27.00" routeLength="131.68" waitingTime="0.00" waitingCount="0" stopTime="0.00" timeLoss="13.45" rerouteNo="0" devices="tripinfo_f_8.1 routing_f_8.1" vType="car2" speedFactor="1.10" vaporized=""/>
    <tripinfo id="f_5.5" depart="49.00" departLane="E0_0" departPos="5.10" departSpeed="0.00" departDelay="4.00" arrival="73.00" arrivalLane="E3_0" arrivalPos="61.11" arrivalSpeed="11.81" duration="24.00" routeLength="130.38" waitingTime="0.00" waitingCount="0" stopTime="0.00" timeLoss="13.75" rerouteNo="0" devices="tripinfo_f_5.5 routing_f_5.5" vType="car0" speedFactor="1.04" vaporized=""/>
    <tripinfo id="f_5.6" depart="54.00" departLane="E0_0" departPos="5.10" departSpeed="0.00" departDelay="0.00" arrival="78.00" arrivalLane="E3_0" arrivalPos="61.11" arrivalSpeed="10.89" duration="24.00" routeLength="130.38" waitingTime="0.00" waitingCount="0" stopTime="0.00" timeLoss="11.22" rerouteNo="0" devices="tripinfo_f_5.6 routing_f_5.6" vType="car0" speedFactor="0.85" vaporized=""/>
    <tripinfo id="f_5.7" depart="63.00" departLane="E0_0" departPos="5.10" departSpeed="0.00" departDelay="0.00" arrival="86.00" arrivalLane="E3_0" arrivalPos="61.11" arrivalSpeed="11.17" duration="23.00" routeLength="130.38" waitingTime="0.00" waitingCount="0" stopTime="0.00" timeLoss="11.34" rerouteNo="0" devices="tripinfo_f_5.7 routing_f_5.7" vType="car0" speedFactor="0.90" vaporized=""/>
    <tripinfo id="f_0.2" depart="72.00" departLane="E0_0" departPos="5.10" departSpeed="0.00" departDelay="0.00" arrival="96.00" arrivalLane="E2_0" arrivalPos="102.50" arrivalSpeed="9.94" duration="24.00" routeLength="177.16" waitingTime="0.00" waitingCount="0" stopTime="0.00" timeLoss="6.18" rerouteNo="0" devices="tripinfo_f_0.2 routing_f_0.2" vType="car2" speedFactor="1.08" vaporized=""/>
    <tripinfo id="f_5.8" depart="76.00" departLane="E0_0" departPos="5.10" departSpeed="0.00" departDelay="4.00" arrival="98.00" arrivalLane="E3_0" arrivalPos="61.11" arrivalSpeed="10.74" duration="22.00" routeLength="130.38" waitingTime="0.00" waitingCount="0" stopTime="0.00" timeLoss="10.85" rerouteNo="0" devices="tripinfo_f_5.8 routing_f_5.8" vType="car0" speedFactor="0.88" vaporized=""/>
    <tripinfo id="f_8.2" depart="81.00" departLane="E0_0" departPos="5.10" departSpeed="0.00" departDelay="9.00" arrival="105.00" arrivalLane="E1_0" arrivalPos="57.23" arrivalSpeed="9.91" duration="24.00" routeLength="131.68" waitingTime="0.00" waitingCount="0" stopTime="0.00" timeLoss="9.65" rerouteNo="0" devices="tripinfo_f_8.2 routing_f_8.2" vType="car2" speedFactor="1.04" vaporized=""/>
    <tripinfo id="f_5.9" depart="86.00" departLane="E0_0" departPos="5.10" departSpeed="0.00" departDelay="5.00" arrival="110.00" arrivalLane="E3_0" arrivalPos="61.11" arrivalSpeed="11.10" duration="24.00" routeLength="130.38" waitingTime="0.00" waitingCount="0" stopTime="0.00" timeLoss="12.67" rerouteNo="0" devices="tripinfo_f_5.9 routing_f_5.9" vType="car0" speedFactor="0.96" vaporized=""/>
    <tripinfo id="f_5.10" depart="91.00" departLane="E0_0" departPos="5.10" departSpeed="0.00" departDelay="1.00" arrival="113.00" arrivalLane="E3_0" arrivalPos="61.11" arrivalSpeed="11.28" duration="22.00" routeLength="130.38" waitingTime="0.00" waitingCount="0" stopTime="0.00" timeLoss="12.01" rerouteNo="0" devices="tripinfo_f_5.10 routing_f_5.10" vType="car0" speedFactor="1.03" vaporized=""/>
    <tripinfo id="f_5.11" depart="99.00" departLane="E0_0" departPos="5.10" departSpeed="0.00" departDelay="0.00" arrival="120.00" arrivalLane="E3_0" arrivalPos="61.11" arrivalSpeed="10.92" duration="21.00" routeLength="130.38" waitingTime="0.00" waitingCount="0" stopTime="0.00" timeLoss="10.80" rerouteNo="0" devices="tripinfo_f_5.11 routing_f_5.11" vType="car0" speedFactor="1.00" vaporized=""/>
    <tripinfo id="f_0.3" depart="108.00" departLane="E0_0" departPos="5.10" departSpeed="0.00" departDelay="0.00" arrival="133.00" arrivalLane="E2_0" arrivalPos="102.50" arrivalSpeed="9.59" duration="25.00" routeLength="177.16" waitingTime="0.00" waitingCount="0" stopTime="0.00" timeLoss="7.08" rerouteNo="0" devices="tripinfo_f_0.3 routing_f_0.3" vType="car2" speedFactor="1.02" vaporized=""/>
    <tripinfo id="f_5.12" depart="113.00" departLane="E0_0" departPos="5.10" departSpeed="0.00" departDelay="5.00" arrival="134.00" arrivalLane="E3_0" arrivalPos="61.11" arrivalSpeed="11.13" duration="21.00" routeLength="130.38" waitingTime="0.00" waitingCount="0" stopTime="0.00" timeLoss="11.06" rerouteNo="0" devices="tripinfo_f_5.12 routing_f_5.12" vType="car0" speedFactor="1.06" vaporized=""/>
    <tripinfo id="f_8.3" depart="117.00" departLane="E0_0" departPos="5.10" departSpeed="0.00" departDelay="9.00" arrival="140.00" arrivalLane="E1_0" arrivalPos="57.23" arrivalSpeed="9.88" duration="23.00" routeLength="131.68" waitingTime="0.00" waitingCount="0" stopTime="0.00" timeLoss="9.00" rerouteNo="0" devices="tripinfo_f_8.3 routing_f_8.3" vType="car2" speedFactor="1.12" vaporized=""/>
    <tripinfo id="f_5.13" depart="121.00" departLane="E0_0" departPos="5.10" departSpeed="0.00" departDelay="4.00" arrival="145.00" arrivalLane="E3_0" arrivalPos="61.11" arrivalSpeed="10.58" duration="24.00" routeLength="130.38" waitingTime="0.00" waitingCount="0" stopTime="0.00" timeLoss="12.14" rerouteNo="0" devices="tripinfo_f_5.13 routing_f_5.13" vType="car0" speedFactor="0.89" vaporized=""/>
    <tripinfo id="f_5.14" depart="126.00" departLane="E0_0" departPos="5.10" departSpeed="0.00" departDelay="0.00" arrival="148.00" arrivalLane="E3_0" arrivalPos="61.11" arrivalSpeed="10.96" duration="22.00" routeLength="130.38" waitingTime="0.00" waitingCount="0" stopTime="0.00" timeLoss="11.17" rerouteNo="0" devices="tripinfo_f_5.14 routing_f_5.14" vType="car0" speedFactor="0.93" vaporized=""/>
    <tripinfo id="f_5.15" depart="135.00" departLane="E0_0" departPos="5.10" departSpeed="0.00" departDelay="0.00" arrival="155.00" arrivalLane="E3_0" arrivalPos="61.11" arrivalSpeed="11.96" duration="20.00" routeLength="130.38" waitingTime="0.00" waitingCount="0" stopTime="0.00" timeLoss="11.22" rerouteNo="0" devices="tripinfo_f_5.15 routing_f_5.15" vType="car0" speedFactor="1.18" vaporized=""/>
    <tripinfo id="f_0.4" depart="144.00" departLane="E0_0" departPos="5.10" departSpeed="0.00" departDelay="0.00" arrival="168.00" arrivalLane="E2_0" arrivalPos="102.50" arrivalSpeed="9.92" duration="24.00" routeLength="177.16" waitingTime="0.00" waitingCount="0" stopTime="0.00" timeLoss="6.11" rerouteNo="0" devices="tripinfo_f_0.4 routing_f_0.4" vType="car2" speedFactor="0.94" vaporized=""/>
    <tripinfo id="f_5.16" depart="148.00" departLane="E0_0" departPos="5.10" departSpeed="0.00" departDelay="4.00" arrival="169.00" arrivalLane="E3_0" arrivalPos="61.11" arrivalSpeed="11.92" duration="21.00" routeLength="130.38" waitingTime="0.00" waitingCount="0" stopTime="0.00" timeLoss="11.97" rerouteNo="0" devices="tripinfo_f_5.16 routing_f_5.16" vType="car0" speedFactor="1.15" vaporized=""/>
    <tripinfo id="f_8.4" depart="153.00" departLane="E0_0" departPos="5.10" departSpeed="0.00" departDelay="9.00" arrival="177.00" arrivalLane="E1_0" arrivalPos="57.23" arrivalSpeed="9.92" duration="24.00" routeLength="131.68" waitingTime="0.00" waitingCount="0" stopTime="0.00" timeLoss="10.71" rerouteNo="0" devices="tripinfo_f_8.4 routing_f_8.4" vType="car2" speedFactor="1.12" vaporized=""/>
    <tripinfo id="f_5.17" depart="157.00" departLane="E0_0" departPos="5.10" departSpeed="0.00" departDelay="4.00" arrival="179.00" arrivalLane="E3_0" arrivalPos="61.11" arrivalSpeed="12.07" duration="22.00" routeLength="130.38" waitingTime="0.00" waitingCount="0" stopTime="0.00" timeLoss="13.86" rerouteNo="0" devices="tripinfo_f_5.17 routing_f_5.17" vType="car0" speedFactor="1.23" vaporized=""/>
    <tripinfo id="f_5.18" depart="162.00" departLane="E0_0" departPos="5.10" departSpeed="0.00" departDelay="0.00" arrival="183.00" arrivalLane="E3_0" arrivalPos="61.11" arrivalSpeed="11.10" duration="21.00" routeLength="130.38" waitingTime="0.00" waitingCount="0" stopTime="0.00" timeLoss="11.53" rerouteNo="0" devices="tripinfo_f_5.18 routing_f_5.18" vType="car0" speedFactor="1.11" vaporized=""/>
    <tripinfo id="f_5.19" depart="171.00" departLane="E0_0" departPos="5.10" departSpeed="0.00" departDelay="0.00" arrival="194.00" arrivalLane="E3_0" arrivalPos="61.11" arrivalSpeed="10.89" duration="23.00" routeLength="130.38" waitingTime="0.00" waitingCount="0" stopTime="0.00" timeLoss="11.46" rerouteNo="0" devices="tripinfo_f_5.19 routing_f_5.19" vType="car0" speedFactor="0.89" vaporized=""/>
    <tripinfo id="f_0.5" depart="180.00" departLane="E0_0" departPos="5.10" departSpeed="0.00" departDelay="0.00" arrival="205.00" arrivalLane="E2_0" arrivalPos="102.50" arrivalSpeed="9.61" duration="25.00" routeLength="177.16" waitingTime="0.00" waitingCount="0" stopTime="0.00" timeLoss="6.95" rerouteNo="0" devices="tripinfo_f_0.5 routing_f_0.5" vType="car2" speedFactor="0.96" vaporized=""/>
    <tripinfo id="f_5.20" depart="185.00" departLane="E0_0" departPos="5.10" departSpeed="0.00" departDelay="5.00" arrival="206.00" arrivalLane="E3_0" arrivalPos="61.11" arrivalSpeed="11.60" duration="21.00" routeLength="130.38" waitingTime="0.00" waitingCount="0" stopTime="0.00" timeLoss="11.32" rerouteNo="0" devices="tripinfo_f_5.20 routing_f_5.20" vType="car0" speedFactor="1.12" vaporized=""/>
    <tripinfo id="f_8.5" depart="190.00" departLane="E0_0" departPos="5.10" departSpeed="0.00" departDelay="10.00" arrival="213.00" arrivalLane="E1_0" arrivalPos="57.23" arrivalSpeed="9.77" duration="23.00" routeLength="131.68" waitingTime="0.00" waitingCount="0" stopTime="0.00" timeLoss="8.53" rerouteNo="0" devices="tripinfo_f_8.5 routing_f_8.5" vType="car2" speedFactor="0.91" vaporized=""/>
    <tripinfo id="f_5.21" depart="194.00" departLane="E0_0" departPos="5.10" departSpeed="0.00" departDelay="5.00" arrival="217.00" arrivalLane="E3_0" arrivalPos="61.11" arrivalSpeed="12.81" duration="23.00" routeLength="130.38" waitingTime="0.00" waitingCount="0" stopTime="0.00" timeLoss="12.72" rerouteNo="0" devices="tripinfo_f_5.21 routing_f_5.21" vType="car0" speedFactor="1.05" vaporized=""/>
    <tripinfo id="f_5.22" depart="199.00" departLane="E0_0" departPos="5.10" departSpeed="0.00" departDelay="1.00" arrival="220.00" arrivalLane="E3_0" arrivalPos="61.11" arrivalSpeed="11.95" duration="21.00" routeLength="130.38" waitingTime="0.00" waitingCount="0" stopTime="0.00" timeLoss="11.08" rerouteNo="0" devices="tripinfo_f_5.22 routing_f_5.22" vType="car0" speedFactor="1.09" vaporized=""/>
    <tripinfo id="f_5.23" depart="207.00" departLane="E0_0" departPos="5.10" departSpeed="0.00" departDelay="0.00" arrival="227.00" arrivalLane="E3_0" arrivalPos="61.11" arrivalSpeed="11.83" duration="20.00" routeLength="130.38" waitingTime="0.00" waitingCount="0" stopTime="0.00" timeLoss="10.74" rerouteNo="0" devices="tripinfo_f_5.23 routing_f_5.23" vType="car0" speedFactor="1.09" vaporized=""/>
    <tripinfo id="f_0.6" depart="216.00" departLane="E0_0" departPos="5.10" departSpeed="0.00" departDelay="0.00" arrival="241.00" arrivalLane="E2_0" arrivalPos="102.50" arrivalSpeed="9.74" duration="25.00" routeLength="177.16" waitingTime="0.00" waitingCount="0" stopTime="0.00" timeLoss="7.07" rerouteNo="0" devices="tripinfo_f_0.6 routing_f_0.6" vType="car2" speedFactor="1.10" vaporized=""/>
    <tripinfo id="f_5.24" depart="221.00" departLane="E0_0" departPos="5.10" departSpeed="0.00" departDelay="5.00" arrival="244.00" arrivalLane="E3_0" arrivalPos="61.11" arrivalSpeed="11.73" duration="23.00" routeLength="130.38" waitingTime="0.00" waitingCount="0" stopTime="0.00" timeLoss="11.36" rerouteNo="0" devices="tripinfo_f_5.24 routing_f_5.24" vType="car0" speedFactor="0.92" vaporized=""/>
    <tripinfo id="f_8.6" depart="226.00" departLane="E0_0" departPos="5.10" departSpeed="0.00" departDelay="10.00" arrival="250.00" arrivalLane="E1_0" arrivalPos="57.23" arrivalSpeed="9.51" duration="24.00" routeLength="131.68" waitingTime="0.00" waitingCount="0" stopTime="0.00" timeLoss="10.11" rerouteNo="0" devices="tripinfo_f_8.6 routing_f_8.6" vType="car2" speedFactor="0.97" vaporized=""/>
    <tripinfo id="f_5.25" depart="231.00" departLane="E0_0" departPos="5.10" departSpeed="0.00" departDelay="6.00" arrival="254.00" arrivalLane="E3_0" arrivalPos="61.11" arrivalSpeed="11.27" duration="23.00" routeLength="130.38" waitingTime="0.00" waitingCount="0" stopTime="0.00" timeLoss="12.76" rerouteNo="0" devices="tripinfo_f_5.25 routing_f_5.25" vType="car0" speedFactor="1.00" vaporized=""/>
    <tripinfo id="f_5.26" depart="236.00" departLane="E0_0" departPos="5.10" departSpeed="0.00" departDelay="2.00" arrival="258.00" arrivalLane="E3_0" arrivalPos="61.11" arrivalSpeed="11.90" duration="22.00" routeLength="130.38" waitingTime="0.00" waitingCount="0" stopTime="0.00" timeLoss="10.99" rerouteNo="0" devices="tripinfo_f_5.26 routing_f_5.26" vType="car0" speedFactor="0.95" vaporized=""/>
    <tripinfo id="f_5.27" depart="243.00" departLane="E0_0" departPos="5.10" departSpeed="0.00" departDelay="0.00" arrival="264.00" arrivalLane="E3_0" arrivalPos="61.11" arrivalSpeed="12.29" duration="21.00" routeLength="130.38" waitingTime="0.00" waitingCount="0" stopTime="0.00" timeLoss="10.54" rerouteNo="0" devices="tripinfo_f_5.27 routing_f_5.27" vType="car0" speedFactor="1.00" vaporized=""/>
    <tripinfo id="f_0.7" depart="252.00" departLane="E0_0" departPos="5.10" departSpeed="0.00" departDelay="0.00" arrival="276.00" arrivalLane="E2_0" arrivalPos="102.50" arrivalSpeed="9.89" duration="24.00" routeLength="177.16" waitingTime="0.00" waitingCount="0" stopTime="0.00" timeLoss="6.27" rerouteNo="0" devices="tripinfo_f_0.7 routing_f_0.7" vType="car2" speedFactor="1.10" vaporized=""/>
    <tripinfo id="f_5.28" depart="256.00" departLane="E0_0" departPos="5.10" departSpeed="0.00" departDelay="4.00" arrival="277.00" arrivalLane="E3_0" arrivalPos="61.11" arrivalSpeed="11.06" duration="21.00" routeLength="130.38" waitingTime="0.00" waitingCount="0" stopTime="0.00" timeLoss="11.26" rerouteNo="0" devices="tripinfo_f_5.28 routing_f_5.28" vType="car0" speedFactor="1.09" vaporized=""/>
    <tripinfo id="f_8.7" depart="260.00" departLane="E0_0" departPos="5.10" departSpeed="0.00" departDelay="8.00" arrival="283.00" arrivalLane="E1_0" arrivalPos="57.23" arrivalSpeed="9.78" duration="23.00" routeLength="131.68" waitingTime="0.00" waitingCount="0" stopTime="0.00" timeLoss="8.85" rerouteNo="0" devices="tripinfo_f_8.7 routing_f_8.7" vType="car2" speedFactor="1.07" vaporized=""/>
    <tripinfo id="f_5.29" depart="264.00" departLane="E0_0" departPos="5.10" departSpeed="0.00" departDelay="3.00" arrival="287.00" arrivalLane="E3_0" arrivalPos="61.11" arrivalSpeed="12.37" duration="23.00" routeLength="130.38" waitingTime="0.00" waitingCount="0" stopTime="0.00" timeLoss="12.51" rerouteNo="0" devices="tripinfo_f_5.29 routing_f_5.29" vType="car0" speedFactor="1.02" vaporized=""/>
    <tripinfo id="f_5.30" depart="270.00" departLane="E0_0" departPos="5.10" departSpeed="0.00" departDelay="0.00" arrival="292.00" arrivalLane="E3_0" arrivalPos="61.11" arrivalSpeed="11.23" duration="22.00" routeLength="130.38" waitingTime="0.00" waitingCount="0" stopTime="0.00" timeLoss="11.24" rerouteNo="0" devices="tripinfo_f_5.30 routing_f_5.30" vType="car0" speedFactor="1.04" vaporized=""/>
    <tripinfo id="f_5.31" depart="279.00" departLane="E0_0" departPos="5.10" departSpeed="0.00" departDelay="0.00" arrival="300.00" arrivalLane="E3_0" arrivalPos="61.11" arrivalSpeed="11.87" duration="21.00" routeLength="130.38" waitingTime="0.00" waitingCount="0" stopTime="0.00" timeLoss="11.10" rerouteNo="0" devices="tripinfo_f_5.31 routing_f_5.31" vType="car0" speedFactor="1.04" vaporized=""/>
    <tripinfo id="f_3.0" depart="0.00" departLane="-E1_0" departPos="5.10" departSpeed="0.00" departDelay="0.00" arrival="322.00" arrivalLane="E3_0" arrivalPos="61.11" arrivalSpeed="14.99" duration="322.00" routeLength="113.24" waitingTime="301.00" waitingCount="1" stopTime="0.00" timeLoss="315.59" rerouteNo="0" devices="tripinfo_f_3.0 routing_f_3.0" vType="car0" speedFactor="1.08" vaporized=""/>
    <tripinfo id="f_0.8" depart="288.00" departLane="E0_0" departPos="5.10" departSpeed="0.00" departDelay="0.00" arrival="330.00" arrivalLane="E2_0" arrivalPos="102.50" arrivalSpeed="9.82" duration="42.00" routeLength="177.16" waitingTime="8.00" waitingCount="1" stopTime="0.00" timeLoss="23.39" rerouteNo="0" devices="tripinfo_f_0.8 routing_f_0.8" vType="car2" speedFactor="0.95" vaporized=""/>
    <tripinfo id="f_8.8" depart="296.00" departLane="E0_0" departPos="5.10" departSpeed="0.00" departDelay="8.00" arrival="331.00" arrivalLane="E1_0" arrivalPos="57.23" arrivalSpeed="9.83" duration="35.00" routeLength="131.68" waitingTime="0.00" waitingCount="0" stopTime="0.00" timeLoss="21.49" rerouteNo="0" devices="tripinfo_f_8.8 routing_f_8.8" vType="car2" speedFactor="1.14" vaporized=""/>
    <tripinfo id="f_10.0" depart="18.00" departLane="-E2_0" departPos="5.10" departSpeed="0.00" departDelay="18.00" arrival="337.00" arrivalLane="E3_0" arrivalPos="61.11" arrivalSpeed="3.38" duration="319.00" routeLength="172.73" waitingTime="221.00" waitingCount="2" stopTime="0.00" timeLoss="306.74" rerouteNo="0" devices="tripinfo_f_10.0 routing_f_10.0" vType="car1" speedFactor="1.09" vaporized=""/>
    <tripinfo id="f_5.32" depart="292.00" departLane="E0_0" departPos="5.10" departSpeed="0.00" departDelay="4.00" arrival="340.00" arrivalLane="E3_0" arrivalPos="61.11" arrivalSpeed="5.81" duration="48.00" routeLength="130.38" waitingTime="0.00" waitingCount="0" stopTime="0.00" timeLoss="37.66" rerouteNo="0" devices="tripinfo_f_5.32 routing_f_5.32" vType="car0" speedFactor="1.01" vaporized=""/>
    <tripinfo id="f_5.33" depart="301.00" departLane="E0_0" departPos="5.10" departSpeed="0.00" departDelay="4.00" arrival="342.00" arrivalLane="E3_0" arrivalPos="61.11" arrivalSpeed="6.55" duration="41.00" routeLength="130.38" waitingTime="0.00" waitingCount="0" stopTime="0.00" timeLoss="29.52" rerouteNo="0" devices="tripinfo_f_5.33 routing_f_5.33" vType="car0" speedFactor="0.88" vaporized=""/>
    <tripinfo id="f_5.34" depart="306.00" departLane="E0_0" departPos="5.10" departSpeed="0.00" departDelay="0.00" arrival="345.00" arrivalLane="E3_0" arrivalPos="61.11" arrivalSpeed="7.87" duration="39.00" routeLength="130.38" waitingTime="0.00" waitingCount="0" stopTime="0.00" timeLoss="24.62" rerouteNo="0" devices="tripinfo_f_5.34 routing_f_5.34" vType="car0" speedFactor="0.75" vaporized=""/>
    <tripinfo id="f_5.35" depart="315.00" departLane="E0_0" departPos="5.10" departSpeed="0.00" departDelay="0.00" arrival="347.00" arrivalLane="E3_0" arrivalPos="61.11" arrivalSpeed="8.75" duration="32.00" routeLength="130.38" waitingTime="0.00" waitingCount="0" stopTime="0.00" timeLoss="21.44" rerouteNo="0" devices="tripinfo_f_5.35 routing_f_5.35" vType="car0" speedFactor="0.98" vaporized=""/>
    <tripinfo id="f_0.9" depart="324.00" departLane="E0_0" departPos="5.10" departSpeed="0.00" departDelay="0.00" arrival="349.00" arrivalLane="E2_0" arrivalPos="102.50" arrivalSpeed="9.96" duration="25.00" routeLength="177.16" waitingTime="0.00" waitingCount="0" stopTime="0.00" timeLoss="6.95" rerouteNo="0" devices="tripinfo_f_0.9 routing_f_0.9" vType="car2" speedFactor="0.97" vaporized=""/>
    <tripinfo id="f_5.36" depart="329.00" departLane="E0_0" departPos="5.10" departSpeed="0.00" departDelay="5.00" arrival="351.00" arrivalLane="E3_0" arrivalPos="61.11" arrivalSpeed="11.55" duration="22.00" routeLength="130.38" waitingTime="0.00" waitingCount="0" stopTime="0.00" timeLoss="10.88" rerouteNo="0" devices="tripinfo_f_5.36 routing_f_5.36" vType="car0" speedFactor="0.97" vaporized=""/>
    <tripinfo id="f_9.0" depart="21.00" departLane="-E3_0" departPos="5.10" departSpeed="0.00" departDelay="21.00" arrival="357.00" arrivalLane="-E0_0" arrivalPos="65.34" arrivalSpeed="11.78" duration="336.00" routeLength="121.35" waitingTime="301.00" waitingCount="1" stopTime="0.00" timeLoss="326.07" rerouteNo="0" devices="tripinfo_f_9.0 routing_f_9.0" vType="car0" speedFactor="0.86" vaporized=""/>
    <tripinfo id="f_8.9" depart="333.00" departLane="E0_0" departPos="5.10" departSpeed="0.00" departDelay="9.00" arrival="358.00" arrivalLane="E1_0" arrivalPos="57.23" arrivalSpeed="9.62" duration="25.00" routeLength="131.68" waitingTime="0.00" waitingCount="0" stopTime="0.00" timeLoss="10.81" rerouteNo="0" devices="tripinfo_f_8.9 routing_f_8.9" vType="car2" speedFactor="0.99" vaporized=""/>
    <tripinfo id="f_5.37" depart="337.00" departLane="E0_0" departPos="5.10" departSpeed="0.00" departDelay="4.00" arrival="362.00" arrivalLane="E3_0" arrivalPos="61.11" arrivalSpeed="10.26" duration="25.00" routeLength="130.38" waitingTime="0.00" waitingCount="0" stopTime="0.00" timeLoss="11.81" rerouteNo="0" devices="tripinfo_f_5.37 routing_f_5.37" vType="car0" speedFactor="0.76" vaporized=""/>
    <tripinfo id="f_5.38" depart="342.00" departLane="E0_0" departPos="5.10" departSpeed="0.00" departDelay="0.00" arrival="365.00" arrivalLane="E3_0" arrivalPos="61.11" arrivalSpeed="11.00" duration="23.00" routeLength="130.38" waitingTime="0.00" waitingCount="0" stopTime="0.00" timeLoss="11.91" rerouteNo="0" devices="tripinfo_f_5.38 routing_f_5.38" vType="car0" speedFactor="0.97" vaporized=""/>
    <tripinfo id="f_7.1" depart="27.00" departLane="-E3_0" departPos="5.10" departSpeed="0.00" departDelay="18.00" arrival="370.00" arrivalLane="E2_0" arrivalPos="102.50" arrivalSpeed="12.56" duration="343.00" routeLength="167.58" waitingTime="300.00" waitingCount="1" stopTime="0.00" timeLoss="328.67" rerouteNo="0" devices="tripinfo_f_7.1 routing_f_7.1" vType="car0" speedFactor="0.93" vaporized=""/>
    <tripinfo id="f_5.39" depart="351.00" departLane="E0_0" departPos="5.10" departSpeed="0.00" departDelay="0.00" arrival="372.00" arrivalLane="E3_0" arrivalPos="61.11" arrivalSpeed="13.16" duration="21.00" routeLength="130.38" waitingTime="0.00" waitingCount="0" stopTime="0.00" timeLoss="11.15" rerouteNo="0" devices="tripinfo_f_5.39 routing_f_5.39" vType="car0" speedFactor="1.10" vaporized=""/>
    <tripinfo id="f_0.10" depart="360.00" departLane="E0_0" departPos="5.10" departSpeed="0.00" departDelay="0.00" arrival="385.00" arrivalLane="E2_0" arrivalPos="102.50" arrivalSpeed="9.80" duration="25.00" routeLength="177.16" waitingTime="0.00" waitingCount="0" stopTime="0.00" timeLoss="6.58" rerouteNo="0" devices="tripinfo_f_0.10 routing_f_0.10" vType="car2" speedFactor="1.07" vaporized=""/>
    <tripinfo id="f_5.40" depart="364.00" departLane="E0_0" departPos="5.10" departSpeed="0.00" departDelay="4.00" arrival="386.00" arrivalLane="E3_0" arrivalPos="61.11" arrivalSpeed="11.75" duration="22.00" routeLength="130.38" waitingTime="0.00" waitingCount="0" stopTime="0.00" timeLoss="11.21" rerouteNo="0" devices="tripinfo_f_5.40 routing_f_5.40" vType="car0" speedFactor="0.96" vaporized=""/>
    <tripinfo id="f_8.10" depart="368.00" departLane="E0_0" departPos="5.10" departSpeed="0.00" departDelay="8.00" arrival="392.00" arrivalLane="E1_0" arrivalPos="57.23" arrivalSpeed="9.93" duration="24.00" routeLength="131.68" waitingTime="0.00" waitingCount="0" stopTime="0.00" timeLoss="10.20" rerouteNo="0" devices="tripinfo_f_8.10 routing_f_8.10" vType="car2" speedFactor="0.99" vaporized=""/>
    <tripinfo id="f_5.41" depart="373.00" departLane="E0_0" departPos="5.10" departSpeed="0.00" departDelay="4.00" arrival="396.00" arrivalLane="E3_0" arrivalPos="61.11" arrivalSpeed="12.54" duration="23.00" routeLength="130.38" waitingTime="0.00" waitingCount="0" stopTime="0.00" timeLoss="14.00" rerouteNo="0" devices="tripinfo_f_5.41 routing_f_5.41" vType="car0" speedFactor="1.21" vaporized=""/>
    <tripinfo id="f_5.42" depart="378.00" departLane="E0_0" departPos="5.10" departSpeed="0.00" departDelay="0.00" arrival="398.00" arrivalLane="E3_0" arrivalPos="61.11" arrivalSpeed="12.15" duration="20.00" routeLength="130.38" waitingTime="0.00" waitingCount="0" stopTime="0.00" timeLoss="11.31" rerouteNo="0" devices="tripinfo_f_5.42 routing_f_5.42" vType="car0" speedFactor="1.16" vaporized=""/>